=== PhyNEO-AutoParam Batch Production Starting ===
Output Directory: production_results

>>> Starting Production for: Li
--- Converting SMILES: [Li+:1] to XYZ ---
--- Processing Li (Charge: 1 / Basis: def2-TZVP) ---
--- Building Molecule from production_results/Li/Li.xyz ---
#INFO: **** input file is /home/jmchen/project/PhyNEO-AutoParam/scripts/batch_production.py ****
import sys
import os
from pathlib import Path

# Add project root to path to import local modules
sys.path.append(str(Path(__file__).parent.parent))

from data.mol_smiles import phyneo_name_mapped_smiles
from scripts.smiles_to_dataset_entry import process_smiles

def run_production(target_names=None):
    results_dir = "production_results"
    os.makedirs(results_dir, exist_ok=True)
    
    print(f"=== PhyNEO-AutoParam Batch Production Starting ===")
    print(f"Output Directory: {results_dir}")
    
    # If no targets provided, process all
    targets = target_names if target_names else phyneo_name_mapped_smiles.keys()
    
    for name in targets:
        smiles = phyneo_name_mapped_smiles.get(name)
        if not smiles:
            print(f"Warning: Molecule {name} not found in smiles map.")
            continue
            
        print(f"\n>>> Starting Production for: {name}")
        try:
            # Using production standards: wb97x-d / def2-TZVP
            process_smiles(smiles, name, results_dir=results_dir)
            print(f">>> Completed: {name}")
        except Exception as e:
            print(f">>> Failed: {name} | Error: {e}")

if __name__ == "__main__":
    # Run production for all molecules defined in mol_smiles.py
    run_production()
#INFO: ******************** input file end ********************


System: uname_result(system='Linux', node='bm-220at9g', release='5.15.0-97-generic', version='#107-Ubuntu SMP Wed Feb 7 13:26:48 UTC 2024', machine='x86_64')  Threads 224
Python 3.11.14 (main, Oct 21 2025, 18:31:21) [GCC 11.2.0]
numpy 2.2.6  scipy 1.14.0  h5py 3.15.1
Date: Wed Mar 11 07:56:59 2026
PySCF version 2.12.1
PySCF path  /home/jmchen/miniconda3/envs/auto-multipol/lib/python3.11/site-packages/pyscf

[CONFIG] conf_file None
[INPUT] verbose = 4
[INPUT] num. atoms = 1
[INPUT] num. electrons = 2
[INPUT] charge = 1
[INPUT] spin (= nelec alpha-beta = 2S) = 0
[INPUT] symmetry False subgroup None
[INPUT] Mole.unit = angstrom
[INPUT] Symbol           X                Y                Z      unit          X                Y                Z       unit  Magmom
[INPUT]  1 Li     0.000000000000   0.000000000000   0.000000000000 AA    0.000000000000   0.000000000000   0.000000000000 Bohr   0.0

nuclear repulsion = 0
number of shells = 8
number of NR pGTOs = 20
number of NR cGTOs = 14
basis = def2-TZVP
ecp = {}
CPU time:        17.87
--- Running DFT (wb97xd/def2-TZVP) on CPU ---
--- High-quality functional detected: Setting grid level to 4 for better density tails ---


******** <class 'pyscf.dft.rks.RKS'> ********
method = RKS
initial guess = minao
damping factor = 0
level_shift factor = 0
DIIS = <class 'pyscf.scf.diis.CDIIS'>
diis_start_cycle = 1
diis_space = 8
diis_damp = 0
SCF conv_tol = 1e-09
SCF conv_tol_grad = None
SCF max_cycles = 50
direct_scf = True
direct_scf_tol = 1e-13
chkfile to save SCF result = /tmp/tmpx_8tunee
max_memory 4000 MB (current use 308 MB)
XC library pyscf.dft.libxc version 7.0.0
    S. Lehtola, C. Steigemann, M. J.T. Oliveira, and M. A.L. Marques.,  SoftwareX 7, 1–5 (2018)
XC functionals = wb97xd
    J.-D. Chai and M. Head-Gordon.,  Phys. Chem. Chem. Phys. 10, 6615-6620 (2008)
radial grids: 
    Treutler-Ahlrichs [JCP 102, 346 (1995); DOI:10.1063/1.469408] (M4) radial grids
    
becke partition: Becke, JCP 88, 2547 (1988); DOI:10.1063/1.454033
pruning grids: <function nwchem_prune at 0x7f35a5008680>
grids dens level: 4
symmetrized grids: False
atomic radii adjust function: <function treutler_atomic_radii_adjust at 0x7f35a50084a0>
small_rho_cutoff = 1e-07
Set gradient conv threshold to 3.16228e-05
Initial guess from minao.
tot grids = 27496
init E= -7.44278574233999
  HOMO = -2.12166077686534  LUMO = -0.0989515154141314
cycle= 1 E= -7.29326355427404  delta_E= 0.15  |g|= 0.0116  |ddm|= 0.651
  HOMO = -2.44299917761324  LUMO = -0.196596422186735
cycle= 2 E= -7.29327157627984  delta_E= -8.02e-06  |g|= 0.000978  |ddm|= 0.00366
  HOMO = -2.44178859119145  LUMO = -0.196923932158517
cycle= 3 E= -7.29327163137089  delta_E= -5.51e-08  |g|= 3.61e-05  |ddm|= 0.000315
  HOMO = -2.44179341158925  LUMO = -0.197098305931645
cycle= 4 E= -7.29327163163583  delta_E= -2.65e-10  |g|= 2.22e-06  |ddm|= 3.85e-05
  HOMO = -2.44179343167854  LUMO = -0.196768120505608
Extra cycle  E= -7.29327163163716  delta_E= -1.33e-12  |g|= 6.46e-07  |ddm|= 2.46e-06
converged SCF energy = -7.29327163163716
--- Performing MBIS Partitioning (HORTON 3) ---

================================================================================
Information of integral grids.
--------------------------------------------------------------------------------
Grid size of molecular grid: 6106
************************************ Atom 0 ************************************
   |-- Radial grid size: 71
   |-- Angular grid sizes: 
          86 86 86 86 86 86 86 86 86 86 86 86 86 86 86 86 86 86 86 86
          86 86 86 86 86 86 86 86 86 86 86 86 86 86 86 86 86 86 86 86
          86 86 86 86 86 86 86 86 86 86 86 86 86 86 86 86 86 86 86 86
          86 86 86 86 86 86 86 86 86 86 86
--------------------------------------------------------------------------------
================================================================================
 
Performing a density-based AIM analysis with a wavefunction as input.
  Molecular grid    : MolGrid
  Using local grids : True
Iteration       Change      Entropy
MBIS not converged, but still go ahead!
        1   4.63968e-01   -5.73984e-01
MBIS not converged, but still go ahead!
        2   1.21164e-02   1.96034e-04
MBIS not converged, but still go ahead!
        3   7.54408e-03   9.27063e-05
MBIS not converged, but still go ahead!
        4   3.86554e-03   4.70827e-05
MBIS not converged, but still go ahead!
        5   1.55867e-03   3.82922e-05
MBIS not converged, but still go ahead!
        6   5.48968e-04   3.69182e-05
MBIS not converged, but still go ahead!
        7   1.82752e-04   3.67502e-05
MBIS not converged, but still go ahead!
        8   5.96334e-05   3.67316e-05
        9   1.08752e-05   3.67297e-05
       10   1.99621e-08   3.67295e-05

Computing cartesian and pure AIM multipoles and radial AIM moments.
--- Deriving Physical Parameters (alpha, C6, C8, C10, Slater B) ---

Success! Physics anchors for Li saved to production_results/Li/results_high.json
>>> Completed: Li

>>> Starting Production for: Na
--- Converting SMILES: [Na+:1] to XYZ ---
--- Processing Na (Charge: 1 / Basis: def2-TZVP) ---
--- Building Molecule from production_results/Na/Na.xyz ---
#INFO: **** input file is /home/jmchen/project/PhyNEO-AutoParam/scripts/batch_production.py ****
import sys
import os
from pathlib import Path

# Add project root to path to import local modules
sys.path.append(str(Path(__file__).parent.parent))

from data.mol_smiles import phyneo_name_mapped_smiles
from scripts.smiles_to_dataset_entry import process_smiles

def run_production(target_names=None):
    results_dir = "production_results"
    os.makedirs(results_dir, exist_ok=True)
    
    print(f"=== PhyNEO-AutoParam Batch Production Starting ===")
    print(f"Output Directory: {results_dir}")
    
    # If no targets provided, process all
    targets = target_names if target_names else phyneo_name_mapped_smiles.keys()
    
    for name in targets:
        smiles = phyneo_name_mapped_smiles.get(name)
        if not smiles:
            print(f"Warning: Molecule {name} not found in smiles map.")
            continue
            
        print(f"\n>>> Starting Production for: {name}")
        try:
            # Using production standards: wb97x-d / def2-TZVP
            process_smiles(smiles, name, results_dir=results_dir)
            print(f">>> Completed: {name}")
        except Exception as e:
            print(f">>> Failed: {name} | Error: {e}")

if __name__ == "__main__":
    # Run production for all molecules defined in mol_smiles.py
    run_production()
#INFO: ******************** input file end ********************


System: uname_result(system='Linux', node='bm-220at9g', release='5.15.0-97-generic', version='#107-Ubuntu SMP Wed Feb 7 13:26:48 UTC 2024', machine='x86_64')  Threads 224
Python 3.11.14 (main, Oct 21 2025, 18:31:21) [GCC 11.2.0]
numpy 2.2.6  scipy 1.14.0  h5py 3.15.1
Date: Wed Mar 11 07:57:02 2026
PySCF version 2.12.1
PySCF path  /home/jmchen/miniconda3/envs/auto-multipol/lib/python3.11/site-packages/pyscf

[CONFIG] conf_file None
[INPUT] verbose = 4
[INPUT] num. atoms = 1
[INPUT] num. electrons = 10
[INPUT] charge = 1
[INPUT] spin (= nelec alpha-beta = 2S) = 0
[INPUT] symmetry False subgroup None
[INPUT] Mole.unit = angstrom
[INPUT] Symbol           X                Y                Z      unit          X                Y                Z       unit  Magmom
[INPUT]  1 Na     0.000000000000   0.000000000000   0.000000000000 AA    0.000000000000   0.000000000000   0.000000000000 Bohr   0.0

nuclear repulsion = 0
number of shells = 12
number of NR pGTOs = 53
number of NR cGTOs = 32
basis = def2-TZVP
ecp = {}
CPU time:       475.37
--- Running DFT (wb97xd/def2-TZVP) on CPU ---
--- High-quality functional detected: Setting grid level to 4 for better density tails ---


******** <class 'pyscf.dft.rks.RKS'> ********
method = RKS
initial guess = minao
damping factor = 0
level_shift factor = 0
DIIS = <class 'pyscf.scf.diis.CDIIS'>
diis_start_cycle = 1
diis_space = 8
diis_damp = 0
SCF conv_tol = 1e-09
SCF conv_tol_grad = None
SCF max_cycles = 50
direct_scf = True
direct_scf_tol = 1e-13
chkfile to save SCF result = /tmp/tmpzt3kz95r
max_memory 4000 MB (current use 353 MB)
XC library pyscf.dft.libxc version 7.0.0
    S. Lehtola, C. Steigemann, M. J.T. Oliveira, and M. A.L. Marques.,  SoftwareX 7, 1–5 (2018)
XC functionals = wb97xd
    J.-D. Chai and M. Head-Gordon.,  Phys. Chem. Chem. Phys. 10, 6615-6620 (2008)
radial grids: 
    Treutler-Ahlrichs [JCP 102, 346 (1995); DOI:10.1063/1.469408] (M4) radial grids
    
becke partition: Becke, JCP 88, 2547 (1988); DOI:10.1063/1.454033
pruning grids: <function nwchem_prune at 0x7f35a5008680>
grids dens level: 4
symmetrized grids: False
atomic radii adjust function: <function treutler_atomic_radii_adjust at 0x7f35a50084a0>
small_rho_cutoff = 1e-07
Set gradient conv threshold to 3.16228e-05
Initial guess from minao.
tot grids = 27384
init E= -162.216454502469
  HOMO = -1.23724778153774  LUMO = -0.0933257645371862
cycle= 1 E= -162.081132321131  delta_E= 0.135  |g|= 0.0727  |ddm|= 0.812
  HOMO = -1.54964456178538  LUMO = -0.181930622516746
cycle= 2 E= -162.081802317356  delta_E= -0.00067  |g|= 0.0433  |ddm|= 0.055
  HOMO = -1.53068527466121  LUMO = -0.181160800551122
cycle= 3 E= -162.082000863943  delta_E= -0.000199  |g|= 0.00198  |ddm|= 0.0198
  HOMO = -1.52949789851696  LUMO = -0.181083417170805
cycle= 4 E= -162.082001479367  delta_E= -6.15e-07  |g|= 3.84e-05  |ddm|= 0.00169
  HOMO = -1.52950247660958  LUMO = -0.181103472287211
cycle= 5 E= -162.082001479731  delta_E= -3.63e-10  |g|= 1.15e-06  |ddm|= 2.73e-05
  HOMO = -1.52950238607769  LUMO = -0.181103078524816
Extra cycle  E= -162.082001479731  delta_E= -4.83e-13  |g|= 1.37e-07  |ddm|= 8.81e-07
converged SCF energy = -162.082001479731
--- Performing MBIS Partitioning (HORTON 3) ---

================================================================================
Information of integral grids.
--------------------------------------------------------------------------------
Grid size of molecular grid: 7310
************************************ Atom 0 ************************************
   |-- Radial grid size: 85
   |-- Angular grid sizes: 
          86 86 86 86 86 86 86 86 86 86 86 86 86 86 86 86 86 86 86 86
          86 86 86 86 86 86 86 86 86 86 86 86 86 86 86 86 86 86 86 86
          86 86 86 86 86 86 86 86 86 86 86 86 86 86 86 86 86 86 86 86
          86 86 86 86 86 86 86 86 86 86 86 86 86 86 86 86 86 86 86 86
          86 86 86 86 86
--------------------------------------------------------------------------------
================================================================================
 
Performing a density-based AIM analysis with a wavefunction as input.
  Molecular grid    : MolGrid
  Using local grids : True
Iteration       Change      Entropy
        1   7.58058e+00   1.15648e+00
        2   1.40088e-08   3.36413e-02

[07:57:05] UFFTYPER: Warning: hybridization set to SP3 for atom 0
[07:57:05] UFFTYPER: Unrecognized charge state for atom: 0
Computing cartesian and pure AIM multipoles and radial AIM moments.
--- Deriving Physical Parameters (alpha, C6, C8, C10, Slater B) ---

Success! Physics anchors for Na saved to production_results/Na/results_high.json
>>> Completed: Na

>>> Starting Production for: PF6
--- Converting SMILES: [P-:1]([F:2])([F:3])([F:4])([F:5])([F:6])[F:7] to XYZ ---
--- Processing PF6 (Charge: -1 / Basis: def2-TZVP) ---
--- Building Molecule from production_results/PF6/PF6.xyz ---
#INFO: **** input file is /home/jmchen/project/PhyNEO-AutoParam/scripts/batch_production.py ****
import sys
import os
from pathlib import Path

# Add project root to path to import local modules
sys.path.append(str(Path(__file__).parent.parent))

from data.mol_smiles import phyneo_name_mapped_smiles
from scripts.smiles_to_dataset_entry import process_smiles

def run_production(target_names=None):
    results_dir = "production_results"
    os.makedirs(results_dir, exist_ok=True)
    
    print(f"=== PhyNEO-AutoParam Batch Production Starting ===")
    print(f"Output Directory: {results_dir}")
    
    # If no targets provided, process all
    targets = target_names if target_names else phyneo_name_mapped_smiles.keys()
    
    for name in targets:
        smiles = phyneo_name_mapped_smiles.get(name)
        if not smiles:
            print(f"Warning: Molecule {name} not found in smiles map.")
            continue
            
        print(f"\n>>> Starting Production for: {name}")
        try:
            # Using production standards: wb97x-d / def2-TZVP
            process_smiles(smiles, name, results_dir=results_dir)
            print(f">>> Completed: {name}")
        except Exception as e:
            print(f">>> Failed: {name} | Error: {e}")

if __name__ == "__main__":
    # Run production for all molecules defined in mol_smiles.py
    run_production()
#INFO: ******************** input file end ********************


System: uname_result(system='Linux', node='bm-220at9g', release='5.15.0-97-generic', version='#107-Ubuntu SMP Wed Feb 7 13:26:48 UTC 2024', machine='x86_64')  Threads 224
Python 3.11.14 (main, Oct 21 2025, 18:31:21) [GCC 11.2.0]
numpy 2.2.6  scipy 1.14.0  h5py 3.15.1
Date: Wed Mar 11 07:57:05 2026
PySCF version 2.12.1
PySCF path  /home/jmchen/miniconda3/envs/auto-multipol/lib/python3.11/site-packages/pyscf

[CONFIG] conf_file None
[INPUT] verbose = 4
[INPUT] num. atoms = 7
[INPUT] num. electrons = 70
[INPUT] charge = -1
[INPUT] spin (= nelec alpha-beta = 2S) = 0
[INPUT] symmetry False subgroup None
[INPUT] Mole.unit = angstrom
[INPUT] Symbol           X                Y                Z      unit          X                Y                Z       unit  Magmom
[INPUT]  1 P      0.094294000000   0.199987000000  -0.568126000000 AA    0.178189835190   0.377920658473  -1.073602544245 Bohr   0.0
[INPUT]  2 F      1.064084000000  -1.156751000000  -0.551601000000 AA    2.010827333532  -2.185942584317  -1.042374820036 Bohr   0.0
[INPUT]  3 F      1.592048000000   0.040992000000   0.127568000000 AA    3.008534697162   0.077463653298   0.241068582259 Bohr   0.0
[INPUT]  4 F     -1.576523000000   0.199030000000  -0.749672000000 AA   -2.979196699078   0.376112190572  -1.416674763255 Bohr   0.0
[INPUT]  5 F      0.498133000000   1.590408000000   0.249674000000 AA    0.941334943608   3.005435546317   0.471815480425 Bohr   0.0
[INPUT]  6 F     -0.761769000000  -1.210625000000  -0.846552000000 AA   -1.439534780184  -2.287749689552  -1.599751430203 Bohr   0.0
[INPUT]  7 F     -0.910267000000   0.336958000000   0.736256000000 AA   -1.720155330229   0.636758335481   1.391322197568 Bohr   0.0

nuclear repulsion = 544.116483709354
number of shells = 79
number of NR pGTOs = 339
number of NR cGTOs = 223
basis = def2-TZVP
ecp = {}
CPU time:       981.07
--- Running DFT (wb97xd/def2-TZVP) on CPU ---
--- High-quality functional detected: Setting grid level to 4 for better density tails ---


******** <class 'pyscf.dft.rks.RKS'> ********
method = RKS
initial guess = minao
damping factor = 0
level_shift factor = 0
DIIS = <class 'pyscf.scf.diis.CDIIS'>
diis_start_cycle = 1
diis_space = 8
diis_damp = 0
SCF conv_tol = 1e-09
SCF conv_tol_grad = None
SCF max_cycles = 50
direct_scf = True
direct_scf_tol = 1e-13
chkfile to save SCF result = /tmp/tmpf32sfv3d
max_memory 4000 MB (current use 388 MB)
XC library pyscf.dft.libxc version 7.0.0
    S. Lehtola, C. Steigemann, M. J.T. Oliveira, and M. A.L. Marques.,  SoftwareX 7, 1–5 (2018)
XC functionals = wb97xd
    J.-D. Chai and M. Head-Gordon.,  Phys. Chem. Chem. Phys. 10, 6615-6620 (2008)
radial grids: 
    Treutler-Ahlrichs [JCP 102, 346 (1995); DOI:10.1063/1.469408] (M4) radial grids
    
becke partition: Becke, JCP 88, 2547 (1988); DOI:10.1063/1.454033
pruning grids: <function nwchem_prune at 0x7f35a5008680>
grids dens level: 4
symmetrized grids: False
atomic radii adjust function: <function treutler_atomic_radii_adjust at 0x7f35a50084a0>
small_rho_cutoff = 1e-07
Set gradient conv threshold to 3.16228e-05
Initial guess from minao.
tot grids = 202096
init E= -941.917700568946
  HOMO = -0.300874331130538  LUMO = -0.238279324811039
cycle= 1 E= -939.394701804387  delta_E= 2.52  |g|= 1.76  |ddm|= 2.79
  HOMO = 0.0660480088036078  LUMO = 0.167282812529549
cycle= 2 E= -938.148000187691  delta_E= 1.25  |g|= 3.38  |ddm|= 3.44
  HOMO = -0.0158670274665482  LUMO = 0.0213836557645345
cycle= 3 E= -939.818486963247  delta_E= -1.67  |g|= 0.836  |ddm|= 2.87
  HOMO = 0.00369395169331361  LUMO = 0.0188229313366355
cycle= 4 E= -939.980437432147  delta_E= -0.162  |g|= 0.321  |ddm|= 1.57
  HOMO = -0.0805720408632909  LUMO = 0.0638820978163304
cycle= 5 E= -939.990817221774  delta_E= -0.0104  |g|= 0.301  |ddm|= 0.394
  HOMO = -0.086149142389105  LUMO = 0.0710588708025651
cycle= 6 E= -939.998620687748  delta_E= -0.0078  |g|= 0.237  |ddm|= 0.109
  HOMO = -0.0994716220060366  LUMO = 0.0801830528873
cycle= 7 E= -940.009845739997  delta_E= -0.0112  |g|= 0.13  |ddm|= 0.307
  HOMO = -0.109940599923884  LUMO = 0.0879228573924384
cycle= 8 E= -940.01464545792  delta_E= -0.0048  |g|= 0.0461  |ddm|= 0.268
  HOMO = -0.109352670611137  LUMO = 0.0890462351900133
cycle= 9 E= -940.01557708589  delta_E= -0.000932  |g|= 0.027  |ddm|= 0.142
  HOMO = -0.109946261239577  LUMO = 0.0888799126534385
cycle= 10 E= -940.015919428221  delta_E= -0.000342  |g|= 0.011  |ddm|= 0.0947
  HOMO = -0.110350897908413  LUMO = 0.0882866726474694
cycle= 11 E= -940.016013260703  delta_E= -9.38e-05  |g|= 0.00527  |ddm|= 0.0569
  HOMO = -0.110001513419781  LUMO = 0.0879901864303439
cycle= 12 E= -940.016045118244  delta_E= -3.19e-05  |g|= 0.00276  |ddm|= 0.0176
  HOMO = -0.109877236843859  LUMO = 0.088024895928261
cycle= 13 E= -940.016066046374  delta_E= -2.09e-05  |g|= 0.00227  |ddm|= 0.0133
  HOMO = -0.110035769203911  LUMO = 0.0880436066262821
cycle= 14 E= -940.016101282075  delta_E= -3.52e-05  |g|= 0.00162  |ddm|= 0.029
  HOMO = -0.110040304680256  LUMO = 0.088056592715239
cycle= 15 E= -940.016124691802  delta_E= -2.34e-05  |g|= 0.00138  |ddm|= 0.0277
  HOMO = -0.110032163947987  LUMO = 0.088133177380646
cycle= 16 E= -940.016136280299  delta_E= -1.16e-05  |g|= 0.000993  |ddm|= 0.0226
  HOMO = -0.110056330725107  LUMO = 0.0881237122604856
cycle= 17 E= -940.016140113014  delta_E= -3.83e-06  |g|= 0.000477  |ddm|= 0.0157
  HOMO = -0.110101754031522  LUMO = 0.0880887209470833
cycle= 18 E= -940.016140588645  delta_E= -4.76e-07  |g|= 0.000274  |ddm|= 0.00662
  HOMO = -0.110092550929448  LUMO = 0.0880827421085105
cycle= 19 E= -940.016140613159  delta_E= -2.45e-08  |g|= 0.000167  |ddm|= 0.000795
  HOMO = -0.110099176804911  LUMO = 0.0880726168221881
cycle= 20 E= -940.016140625091  delta_E= -1.19e-08  |g|= 5.34e-05  |ddm|= 0.000686
  HOMO = -0.110101413313436  LUMO = 0.0880708831295712
cycle= 21 E= -940.016140626257  delta_E= -1.17e-09  |g|= 3.22e-05  |ddm|= 0.00019
  HOMO = -0.11010218140598  LUMO = 0.0880684028336686
cycle= 22 E= -940.016140626689  delta_E= -4.32e-10  |g|= 1.5e-05  |ddm|= 0.000142
  HOMO = -0.110100519971257  LUMO = 0.0880703322471197
Extra cycle  E= -940.016140626669  delta_E= 2.02e-11  |g|= 2.38e-05  |ddm|= 2.87e-05
converged SCF energy = -940.016140626669
--- Performing MBIS Partitioning (HORTON 3) ---

================================================================================
Information of integral grids.
--------------------------------------------------------------------------------
Grid size of molecular grid: 37754
************************************ Atom 0 ************************************
   |-- Radial grid size: 85
   |-- Angular grid sizes: 
          86 86 86 86 86 86 86 86 86 86 86 86 86 86 86 86 86 86 86 86
          86 86 86 86 86 86 86 86 86 86 86 86 86 86 86 86 86 86 86 86
          86 86 86 86 86 86 86 86 86 86 86 86 86 86 86 86 86 86 86 86
          86 86 86 86 86 86 86 86 86 86 86 86 86 86 86 86 86 86 86 86
          86 86 86 86 86
************************************ Atom 1 ************************************
   |-- Radial grid size: 59
   |-- Angular grid sizes: 
          86 86 86 86 86 86 86 86 86 86 86 86 86 86 86 86 86 86 86 86
          86 86 86 86 86 86 86 86 86 86 86 86 86 86 86 86 86 86 86 86
          86 86 86 86 86 86 86 86 86 86 86 86 86 86 86 86 86 86 86
************************************ Atom 2 ************************************
   |-- Radial grid size: 59
   |-- Angular grid sizes: 
          86 86 86 86 86 86 86 86 86 86 86 86 86 86 86 86 86 86 86 86
          86 86 86 86 86 86 86 86 86 86 86 86 86 86 86 86 86 86 86 86
          86 86 86 86 86 86 86 86 86 86 86 86 86 86 86 86 86 86 86
************************************ Atom 3 ************************************
   |-- Radial grid size: 59
   |-- Angular grid sizes: 
          86 86 86 86 86 86 86 86 86 86 86 86 86 86 86 86 86 86 86 86
          86 86 86 86 86 86 86 86 86 86 86 86 86 86 86 86 86 86 86 86
          86 86 86 86 86 86 86 86 86 86 86 86 86 86 86 86 86 86 86
************************************ Atom 4 ************************************
   |-- Radial grid size: 59
   |-- Angular grid sizes: 
          86 86 86 86 86 86 86 86 86 86 86 86 86 86 86 86 86 86 86 86
          86 86 86 86 86 86 86 86 86 86 86 86 86 86 86 86 86 86 86 86
          86 86 86 86 86 86 86 86 86 86 86 86 86 86 86 86 86 86 86
************************************ Atom 5 ************************************
   |-- Radial grid size: 59
   |-- Angular grid sizes: 
          86 86 86 86 86 86 86 86 86 86 86 86 86 86 86 86 86 86 86 86
          86 86 86 86 86 86 86 86 86 86 86 86 86 86 86 86 86 86 86 86
          86 86 86 86 86 86 86 86 86 86 86 86 86 86 86 86 86 86 86
************************************ Atom 6 ************************************
   |-- Radial grid size: 59
   |-- Angular grid sizes: 
          86 86 86 86 86 86 86 86 86 86 86 86 86 86 86 86 86 86 86 86
          86 86 86 86 86 86 86 86 86 86 86 86 86 86 86 86 86 86 86 86
          86 86 86 86 86 86 86 86 86 86 86 86 86 86 86 86 86 86 86
--------------------------------------------------------------------------------
================================================================================
 
Performing a density-based AIM analysis with a wavefunction as input.
  Molecular grid    : MolGrid
  Using local grids : True
Iteration       Change      Entropy
        1   7.72202e+00   7.42344e+00
        2   8.53048e-01   8.18914e-01
        3   1.62895e-01   5.23029e-01
        4   6.43187e-02   4.59689e-01
        5   3.99869e-02   4.28673e-01
        6   2.81469e-02   4.12535e-01
        7   2.03500e-02   4.04100e-01
        8   1.47691e-02   3.99701e-01
        9   1.07036e-02   3.97411e-01
       10   7.73896e-03   3.96223e-01
       11   5.58305e-03   3.95607e-01
       12   4.02043e-03   3.95288e-01
       13   2.89110e-03   3.95123e-01
       14   2.07681e-03   3.95037e-01
       15   1.49070e-03   3.94992e-01
       16   1.06940e-03   3.94969e-01
       17   7.66844e-04   3.94957e-01
       18   5.49723e-04   3.94950e-01
       19   3.93991e-04   3.94947e-01
       20   2.82336e-04   3.94945e-01
       21   2.02299e-04   3.94944e-01
       22   1.44942e-04   3.94943e-01
       23   1.03838e-04   3.94943e-01
       24   7.43890e-05   3.94943e-01
       25   5.32898e-05   3.94942e-01
       26   3.81738e-05   3.94942e-01
       27   2.73471e-05   3.94942e-01
       28   1.95888e-05   3.94942e-01
       29   1.40303e-05   3.94942e-01
       30   1.00523e-05   3.94942e-01
       31   7.19966e-06   3.94942e-01
       32   5.15913e-06   3.94942e-01
       33   3.69430e-06   3.94942e-01
       34   2.64601e-06   3.94942e-01
       35   1.89632e-06   3.94942e-01
       36   1.35615e-06   3.94942e-01
       37   9.74189e-07   3.94942e-01

Computing cartesian and pure AIM multipoles and radial AIM moments.
--- Deriving Physical Parameters (alpha, C6, C8, C10, Slater B) ---

Success! Physics anchors for PF6 saved to production_results/PF6/results_high.json
>>> Completed: PF6

>>> Starting Production for: BF4
--- Converting SMILES: [B-:1]([F:2])([F:3])([F:4])([F:5]) to XYZ ---
--- Processing BF4 (Charge: -1 / Basis: def2-TZVP) ---
--- Building Molecule from production_results/BF4/BF4.xyz ---
#INFO: **** input file is /home/jmchen/project/PhyNEO-AutoParam/scripts/batch_production.py ****
import sys
import os
from pathlib import Path

# Add project root to path to import local modules
sys.path.append(str(Path(__file__).parent.parent))

from data.mol_smiles import phyneo_name_mapped_smiles
from scripts.smiles_to_dataset_entry import process_smiles

def run_production(target_names=None):
    results_dir = "production_results"
    os.makedirs(results_dir, exist_ok=True)
    
    print(f"=== PhyNEO-AutoParam Batch Production Starting ===")
    print(f"Output Directory: {results_dir}")
    
    # If no targets provided, process all
    targets = target_names if target_names else phyneo_name_mapped_smiles.keys()
    
    for name in targets:
        smiles = phyneo_name_mapped_smiles.get(name)
        if not smiles:
            print(f"Warning: Molecule {name} not found in smiles map.")
            continue
            
        print(f"\n>>> Starting Production for: {name}")
        try:
            # Using production standards: wb97x-d / def2-TZVP
            process_smiles(smiles, name, results_dir=results_dir)
            print(f">>> Completed: {name}")
        except Exception as e:
            print(f">>> Failed: {name} | Error: {e}")

if __name__ == "__main__":
    # Run production for all molecules defined in mol_smiles.py
    run_production()
#INFO: ******************** input file end ********************


System: uname_result(system='Linux', node='bm-220at9g', release='5.15.0-97-generic', version='#107-Ubuntu SMP Wed Feb 7 13:26:48 UTC 2024', machine='x86_64')  Threads 224
Python 3.11.14 (main, Oct 21 2025, 18:31:21) [GCC 11.2.0]
numpy 2.2.6  scipy 1.14.0  h5py 3.15.1
Date: Wed Mar 11 08:52:47 2026
PySCF version 2.12.1
PySCF path  /home/jmchen/miniconda3/envs/auto-multipol/lib/python3.11/site-packages/pyscf

[CONFIG] conf_file None
[INPUT] verbose = 4
[INPUT] num. atoms = 5
[INPUT] num. electrons = 42
[INPUT] charge = -1
[INPUT] spin (= nelec alpha-beta = 2S) = 0
[INPUT] symmetry False subgroup None
[INPUT] Mole.unit = angstrom
[INPUT] Symbol           X                Y                Z      unit          X                Y                Z       unit  Magmom
[INPUT]  1 B     -0.004901000000  -0.001615000000  -0.009090000000 AA   -0.009261547736  -0.003051907691  -0.017177610472 Bohr   0.0
[INPUT]  2 F     -0.471745000000   1.121073000000  -0.806831000000 AA   -0.891468850633   2.118520935645  -1.524689618809 Bohr   0.0
[INPUT]  3 F      1.143760000000  -0.635723000000  -0.634980000000 AA    2.161393152233  -1.201342361087  -1.199938294576 Bohr   0.0
[INPUT]  4 F     -1.078122000000  -0.947276000000   0.155389000000 AA   -2.037355308868  -1.790092204373   0.293642652770 Bohr   0.0
[INPUT]  5 F      0.411008000000   0.463541000000   1.295512000000 AA    0.776692555005   0.875965537507   2.448162871088 Bohr   0.0

nuclear repulsion = 174.502572674385
number of shells = 55
number of NR pGTOs = 230
number of NR cGTOs = 155
basis = def2-TZVP
ecp = {}
CPU time:    679396.33
--- Running DFT (wb97xd/def2-TZVP) on CPU ---
--- High-quality functional detected: Setting grid level to 4 for better density tails ---


******** <class 'pyscf.dft.rks.RKS'> ********
method = RKS
initial guess = minao
damping factor = 0
level_shift factor = 0
DIIS = <class 'pyscf.scf.diis.CDIIS'>
diis_start_cycle = 1
diis_space = 8
diis_damp = 0
SCF conv_tol = 1e-09
SCF conv_tol_grad = None
SCF max_cycles = 50
direct_scf = True
direct_scf_tol = 1e-13
chkfile to save SCF result = /tmp/tmp3jzpwdaz
max_memory 4000 MB (current use 2456 MB)
XC library pyscf.dft.libxc version 7.0.0
    S. Lehtola, C. Steigemann, M. J.T. Oliveira, and M. A.L. Marques.,  SoftwareX 7, 1–5 (2018)
XC functionals = wb97xd
    J.-D. Chai and M. Head-Gordon.,  Phys. Chem. Chem. Phys. 10, 6615-6620 (2008)
radial grids: 
    Treutler-Ahlrichs [JCP 102, 346 (1995); DOI:10.1063/1.469408] (M4) radial grids
    
becke partition: Becke, JCP 88, 2547 (1988); DOI:10.1063/1.454033
pruning grids: <function nwchem_prune at 0x7f35a5008680>
grids dens level: 4
symmetrized grids: False
atomic radii adjust function: <function treutler_atomic_radii_adjust at 0x7f35a50084a0>
small_rho_cutoff = 1e-07
Set gradient conv threshold to 3.16228e-05
Initial guess from minao.
tot grids = 143448
init E= -424.545876412565
  HOMO = -0.535511988855033  LUMO = 0.0715464292391168
cycle= 1 E= -424.434406552063  delta_E= 0.111  |g|= 1.04  |ddm|= 1.79
  HOMO = -0.129535070868187  LUMO = 0.332196096681129
cycle= 2 E= -424.42367208901  delta_E= 0.0107  |g|= 1.19  |ddm|= 0.839
  HOMO = -0.238666526898797  LUMO = 0.320604771874514
cycle= 3 E= -424.601573262772  delta_E= -0.178  |g|= 0.0375  |ddm|= 0.398
  HOMO = -0.244496115264426  LUMO = 0.318619450388843
cycle= 4 E= -424.601835912842  delta_E= -0.000263  |g|= 0.00873  |ddm|= 0.0348
  HOMO = -0.24663478454441  LUMO = 0.317881644632787
cycle= 5 E= -424.601847288515  delta_E= -1.14e-05  |g|= 0.00412  |ddm|= 0.00647
  HOMO = -0.246487617803204  LUMO = 0.317901065773222
cycle= 6 E= -424.601849439428  delta_E= -2.15e-06  |g|= 0.00114  |ddm|= 0.002
  HOMO = -0.246428895560432  LUMO = 0.317917437218197
cycle= 7 E= -424.601849618347  delta_E= -1.79e-07  |g|= 0.000195  |ddm|= 0.00062
  HOMO = -0.246441504303825  LUMO = 0.31790892079691
cycle= 8 E= -424.601849627682  delta_E= -9.33e-09  |g|= 2.27e-05  |ddm|= 0.000244
  HOMO = -0.246436144739852  LUMO = 0.317910630830288
cycle= 9 E= -424.601849627842  delta_E= -1.6e-10  |g|= 3.92e-06  |ddm|= 4.33e-05
  HOMO = -0.246437255031688  LUMO = 0.317910447143449
Extra cycle  E= -424.601849627843  delta_E= -1.48e-12  |g|= 3.84e-06  |ddm|= 7.17e-06
converged SCF energy = -424.601849627843
--- Performing MBIS Partitioning (HORTON 3) ---

================================================================================
Information of integral grids.
--------------------------------------------------------------------------------
Grid size of molecular grid: 24510
************************************ Atom 0 ************************************
   |-- Radial grid size: 49
   |-- Angular grid sizes: 
          86 86 86 86 86 86 86 86 86 86 86 86 86 86 86 86 86 86 86 86
          86 86 86 86 86 86 86 86 86 86 86 86 86 86 86 86 86 86 86 86
          86 86 86 86 86 86 86 86 86
************************************ Atom 1 ************************************
   |-- Radial grid size: 59
   |-- Angular grid sizes: 
          86 86 86 86 86 86 86 86 86 86 86 86 86 86 86 86 86 86 86 86
          86 86 86 86 86 86 86 86 86 86 86 86 86 86 86 86 86 86 86 86
          86 86 86 86 86 86 86 86 86 86 86 86 86 86 86 86 86 86 86
************************************ Atom 2 ************************************
   |-- Radial grid size: 59
   |-- Angular grid sizes: 
          86 86 86 86 86 86 86 86 86 86 86 86 86 86 86 86 86 86 86 86
          86 86 86 86 86 86 86 86 86 86 86 86 86 86 86 86 86 86 86 86
          86 86 86 86 86 86 86 86 86 86 86 86 86 86 86 86 86 86 86
************************************ Atom 3 ************************************
   |-- Radial grid size: 59
   |-- Angular grid sizes: 
          86 86 86 86 86 86 86 86 86 86 86 86 86 86 86 86 86 86 86 86
          86 86 86 86 86 86 86 86 86 86 86 86 86 86 86 86 86 86 86 86
          86 86 86 86 86 86 86 86 86 86 86 86 86 86 86 86 86 86 86
************************************ Atom 4 ************************************
   |-- Radial grid size: 59
   |-- Angular grid sizes: 
          86 86 86 86 86 86 86 86 86 86 86 86 86 86 86 86 86 86 86 86
          86 86 86 86 86 86 86 86 86 86 86 86 86 86 86 86 86 86 86 86
          86 86 86 86 86 86 86 86 86 86 86 86 86 86 86 86 86 86 86
--------------------------------------------------------------------------------
================================================================================
 
Performing a density-based AIM analysis with a wavefunction as input.
  Molecular grid    : MolGrid
  Using local grids : True
Iteration       Change      Entropy
        1   2.07784e+00   5.23136e+00
        2   3.41108e-01   1.46287e-01
        3   3.03594e-02   1.12450e-01
        4   9.00681e-03   1.11506e-01
        5   5.63132e-03   1.10993e-01
        6   4.47396e-03   1.10596e-01
        7   3.88006e-03   1.10269e-01
        8   3.47896e-03   1.09995e-01
        9   3.15782e-03   1.09767e-01
       10   2.87788e-03   1.09576e-01
       11   2.62466e-03   1.09418e-01
       12   2.39219e-03   1.09287e-01
       13   2.17772e-03   1.09180e-01
       14   1.97975e-03   1.09091e-01
       15   1.79724e-03   1.09019e-01
       16   1.62936e-03   1.08960e-01
       17   1.47528e-03   1.08912e-01
       18   1.33419e-03   1.08873e-01
       19   1.20528e-03   1.08842e-01
       20   1.08775e-03   1.08816e-01
       21   9.80798e-04   1.08796e-01
       22   8.83639e-04   1.08779e-01
       23   7.95514e-04   1.08766e-01
       24   7.15694e-04   1.08755e-01
       25   6.43504e-04   1.08747e-01
       26   5.78275e-04   1.08740e-01
       27   5.19401e-04   1.08735e-01
       28   4.66314e-04   1.08731e-01
       29   4.18493e-04   1.08727e-01
       30   3.75438e-04   1.08725e-01
       31   3.36701e-04   1.08723e-01
       32   3.01874e-04   1.08721e-01
       33   2.70586e-04   1.08720e-01
       34   2.42480e-04   1.08719e-01
       35   2.17242e-04   1.08718e-01
       36   1.94605e-04   1.08718e-01
       37   1.74294e-04   1.08717e-01
       38   1.56079e-04   1.08717e-01
       39   1.39742e-04   1.08717e-01
       40   1.25111e-04   1.08716e-01
       41   1.11995e-04   1.08716e-01
       42   1.00244e-04   1.08716e-01
       43   8.97126e-05   1.08716e-01
       44   8.02918e-05   1.08716e-01
       45   7.18513e-05   1.08716e-01
       46   6.42935e-05   1.08716e-01
       47   5.75214e-05   1.08716e-01
       48   5.14714e-05   1.08716e-01
       49   4.60496e-05   1.08716e-01
       50   4.11986e-05   1.08716e-01
       51   3.68508e-05   1.08716e-01
       52   3.29720e-05   1.08716e-01
       53   2.94944e-05   1.08716e-01
       54   2.63797e-05   1.08716e-01
       55   2.36003e-05   1.08716e-01
       56   2.11119e-05   1.08716e-01
       57   1.88832e-05   1.08716e-01
       58   1.68848e-05   1.08716e-01
       59   1.51090e-05   1.08716e-01
       60   1.35141e-05   1.08717e-01
       61   1.20874e-05   1.08717e-01
       62   1.08042e-05   1.08717e-01
       63   9.67022e-06   1.08717e-01
       64   8.64921e-06   1.08717e-01
       65   7.73585e-06   1.08717e-01
       66   6.91197e-06   1.08717e-01
       67   6.18867e-06   1.08717e-01
       68   5.53516e-06   1.08717e-01
       69   4.94895e-06   1.08717e-01
       70   4.42335e-06   1.08717e-01
       71   3.95968e-06   1.08717e-01
       72   3.54216e-06   1.08717e-01
       73   3.16165e-06   1.08717e-01
       74   2.83400e-06   1.08717e-01
       75   2.53382e-06   1.08717e-01
       76   2.26690e-06   1.08717e-01
       77   2.02123e-06   1.08717e-01
       78   1.81388e-06   1.08717e-01
       79   1.62143e-06   1.08717e-01
       80   1.45092e-06   1.08717e-01
       81   1.29159e-06   1.08717e-01
       82   1.16117e-06   1.08717e-01
       83   1.03861e-06   1.08717e-01
       84   9.28034e-07   1.08717e-01

Computing cartesian and pure AIM multipoles and radial AIM moments.
--- Deriving Physical Parameters (alpha, C6, C8, C10, Slater B) ---

Success! Physics anchors for BF4 saved to production_results/BF4/results_high.json
>>> Completed: BF4

>>> Starting Production for: FSI
--- Converting SMILES: [N-:1]([S:2](=[O:3])(=[O:4])[F:5])[S:6](=[O:7])(=[O:8])[F:9] to XYZ ---
--- Processing FSI (Charge: -1 / Basis: def2-TZVP) ---
--- Building Molecule from production_results/FSI/FSI.xyz ---
#INFO: **** input file is /home/jmchen/project/PhyNEO-AutoParam/scripts/batch_production.py ****
import sys
import os
from pathlib import Path

# Add project root to path to import local modules
sys.path.append(str(Path(__file__).parent.parent))

from data.mol_smiles import phyneo_name_mapped_smiles
from scripts.smiles_to_dataset_entry import process_smiles

def run_production(target_names=None):
    results_dir = "production_results"
    os.makedirs(results_dir, exist_ok=True)
    
    print(f"=== PhyNEO-AutoParam Batch Production Starting ===")
    print(f"Output Directory: {results_dir}")
    
    # If no targets provided, process all
    targets = target_names if target_names else phyneo_name_mapped_smiles.keys()
    
    for name in targets:
        smiles = phyneo_name_mapped_smiles.get(name)
        if not smiles:
            print(f"Warning: Molecule {name} not found in smiles map.")
            continue
            
        print(f"\n>>> Starting Production for: {name}")
        try:
            # Using production standards: wb97x-d / def2-TZVP
            process_smiles(smiles, name, results_dir=results_dir)
            print(f">>> Completed: {name}")
        except Exception as e:
            print(f">>> Failed: {name} | Error: {e}")

if __name__ == "__main__":
    # Run production for all molecules defined in mol_smiles.py
    run_production()
#INFO: ******************** input file end ********************


System: uname_result(system='Linux', node='bm-220at9g', release='5.15.0-97-generic', version='#107-Ubuntu SMP Wed Feb 7 13:26:48 UTC 2024', machine='x86_64')  Threads 224
Python 3.11.14 (main, Oct 21 2025, 18:31:21) [GCC 11.2.0]
numpy 2.2.6  scipy 1.14.0  h5py 3.15.1
Date: Wed Mar 11 08:53:04 2026
PySCF version 2.12.1
PySCF path  /home/jmchen/miniconda3/envs/auto-multipol/lib/python3.11/site-packages/pyscf

[CONFIG] conf_file None
[INPUT] verbose = 4
[INPUT] num. atoms = 9
[INPUT] num. electrons = 90
[INPUT] charge = -1
[INPUT] spin (= nelec alpha-beta = 2S) = 0
[INPUT] symmetry False subgroup None
[INPUT] Mole.unit = angstrom
[INPUT] Symbol           X                Y                Z      unit          X                Y                Z       unit  Magmom
[INPUT]  1 N     -0.432459000000   0.274177000000   0.563544000000 AA   -0.817229070103   0.518119439655   1.064943819142 Bohr   0.0
[INPUT]  2 S      1.128670000000   0.341575000000   0.401849000000 AA    2.132877185013   0.645483200998   0.759384553430 Bohr   0.0
[INPUT]  3 O      1.671654000000   1.333007000000  -0.519664000000 AA    3.158968235034   2.519018152128  -0.982022636796 Bohr   0.0
[INPUT]  4 O      1.875041000000  -0.906660000000   0.510460000000 AA    3.543313962331  -1.713339088098   0.964629597545 Bohr   0.0
[INPUT]  5 F      1.511302000000   1.022998000000   1.807835000000 AA    2.855946871507   1.933186045978   3.416313028403 Bohr   0.0
[INPUT]  6 S     -1.080804000000  -0.371922000000  -0.713177000000 AA   -2.042423554334  -0.702830719700  -1.347709208339 Bohr   0.0
[INPUT]  7 O     -1.123701000000   0.430314000000  -1.930360000000 AA   -2.123487135900   0.813175607566  -3.647851721815 Bohr   0.0
[INPUT]  8 O     -0.920316000000  -1.809353000000  -0.900234000000 AA   -1.739145188055  -3.419181632660  -1.701195708022 Bohr   0.0
[INPUT]  9 F     -2.629387000000  -0.314136000000  -0.281793000000 AA   -4.968821305492  -0.593631005866  -0.532511593820 Bohr   0.0

nuclear repulsion = 776.03605598465
number of shells = 103
number of NR pGTOs = 448
number of NR cGTOs = 291
basis = def2-TZVP
ecp = {}
CPU time:    681375.28
--- Running DFT (wb97xd/def2-TZVP) on CPU ---
--- High-quality functional detected: Setting grid level to 4 for better density tails ---


******** <class 'pyscf.dft.rks.RKS'> ********
method = RKS
initial guess = minao
damping factor = 0
level_shift factor = 0
DIIS = <class 'pyscf.scf.diis.CDIIS'>
diis_start_cycle = 1
diis_space = 8
diis_damp = 0
SCF conv_tol = 1e-09
SCF conv_tol_grad = None
SCF max_cycles = 50
direct_scf = True
direct_scf_tol = 1e-13
chkfile to save SCF result = /tmp/tmpo5yl7lpn
max_memory 4000 MB (current use 2539 MB)
XC library pyscf.dft.libxc version 7.0.0
    S. Lehtola, C. Steigemann, M. J.T. Oliveira, and M. A.L. Marques.,  SoftwareX 7, 1–5 (2018)
XC functionals = wb97xd
    J.-D. Chai and M. Head-Gordon.,  Phys. Chem. Chem. Phys. 10, 6615-6620 (2008)
radial grids: 
    Treutler-Ahlrichs [JCP 102, 346 (1995); DOI:10.1063/1.469408] (M4) radial grids
    
becke partition: Becke, JCP 88, 2547 (1988); DOI:10.1063/1.454033
pruning grids: <function nwchem_prune at 0x7f35a5008680>
grids dens level: 4
symmetrized grids: False
atomic radii adjust function: <function treutler_atomic_radii_adjust at 0x7f35a50084a0>
small_rho_cutoff = 1e-07
Set gradient conv threshold to 3.16228e-05
Initial guess from minao.
tot grids = 255968
init E= -1354.29625850364
  HOMO = -0.339066451075785  LUMO = -0.0372619399574681
cycle= 1 E= -1351.29041106083  delta_E= 3.01  |g|= 1.83  |ddm|= 3.45
  HOMO = -0.13564602223574  LUMO = 0.105901506195714
cycle= 2 E= -1350.4146692871  delta_E= 0.876  |g|=    3  |ddm|= 2.47
  HOMO = -0.188341812593756  LUMO = 0.217183684230092
cycle= 3 E= -1351.86127026287  delta_E= -1.45  |g|= 0.243  |ddm|= 1.56
  HOMO = -0.216193198394777  LUMO = 0.200394359648045
cycle= 4 E= -1351.86962948278  delta_E= -0.00836  |g|= 0.123  |ddm|= 0.194
  HOMO = -0.217612518195985  LUMO = 0.200171647046729
cycle= 5 E= -1351.87219211323  delta_E= -0.00256  |g|= 0.0181  |ddm|= 0.0678
  HOMO = -0.214895029632415  LUMO = 0.20388860867981
cycle= 6 E= -1351.87225750063  delta_E= -6.54e-05  |g|= 0.00527  |ddm|= 0.0178
  HOMO = -0.215674785862224  LUMO = 0.203446154157755
cycle= 7 E= -1351.87226230844  delta_E= -4.81e-06  |g|= 0.00261  |ddm|= 0.00484
  HOMO = -0.215616238511104  LUMO = 0.20335888548842
cycle= 8 E= -1351.87226348232  delta_E= -1.17e-06  |g|= 0.000486  |ddm|= 0.00181
  HOMO = -0.215629510638197  LUMO = 0.203342915627188
cycle= 9 E= -1351.87226358421  delta_E= -1.02e-07  |g|= 0.000107  |ddm|= 0.000883
  HOMO = -0.215630698037639  LUMO = 0.203341670740032
cycle= 10 E= -1351.87226359187  delta_E= -7.66e-09  |g|= 3.19e-05  |ddm|= 0.000271
  HOMO = -0.215628465080414  LUMO = 0.203345758776739
cycle= 11 E= -1351.87226359241  delta_E= -5.34e-10  |g|= 1.26e-05  |ddm|= 6.09e-05
  HOMO = -0.215627800698754  LUMO = 0.203345477229321
Extra cycle  E= -1351.87226359246  delta_E= -4.82e-11  |g|= 1.35e-05  |ddm|= 2.11e-05
converged SCF energy = -1351.87226359246
--- Performing MBIS Partitioning (HORTON 3) ---

================================================================================
Information of integral grids.
--------------------------------------------------------------------------------
Grid size of molecular grid: 49278
************************************ Atom 0 ************************************
   |-- Radial grid size: 49
   |-- Angular grid sizes: 
          86 86 86 86 86 86 86 86 86 86 86 86 86 86 86 86 86 86 86 86
          86 86 86 86 86 86 86 86 86 86 86 86 86 86 86 86 86 86 86 86
          86 86 86 86 86 86 86 86 86
************************************ Atom 1 ************************************
   |-- Radial grid size: 85
   |-- Angular grid sizes: 
          86 86 86 86 86 86 86 86 86 86 86 86 86 86 86 86 86 86 86 86
          86 86 86 86 86 86 86 86 86 86 86 86 86 86 86 86 86 86 86 86
          86 86 86 86 86 86 86 86 86 86 86 86 86 86 86 86 86 86 86 86
          86 86 86 86 86 86 86 86 86 86 86 86 86 86 86 86 86 86 86 86
          86 86 86 86 86
************************************ Atom 2 ************************************
   |-- Radial grid size: 59
   |-- Angular grid sizes: 
          86 86 86 86 86 86 86 86 86 86 86 86 86 86 86 86 86 86 86 86
          86 86 86 86 86 86 86 86 86 86 86 86 86 86 86 86 86 86 86 86
          86 86 86 86 86 86 86 86 86 86 86 86 86 86 86 86 86 86 86
************************************ Atom 3 ************************************
   |-- Radial grid size: 59
   |-- Angular grid sizes: 
          86 86 86 86 86 86 86 86 86 86 86 86 86 86 86 86 86 86 86 86
          86 86 86 86 86 86 86 86 86 86 86 86 86 86 86 86 86 86 86 86
          86 86 86 86 86 86 86 86 86 86 86 86 86 86 86 86 86 86 86
************************************ Atom 4 ************************************
   |-- Radial grid size: 59
   |-- Angular grid sizes: 
          86 86 86 86 86 86 86 86 86 86 86 86 86 86 86 86 86 86 86 86
          86 86 86 86 86 86 86 86 86 86 86 86 86 86 86 86 86 86 86 86
          86 86 86 86 86 86 86 86 86 86 86 86 86 86 86 86 86 86 86
************************************ Atom 5 ************************************
   |-- Radial grid size: 85
   |-- Angular grid sizes: 
          86 86 86 86 86 86 86 86 86 86 86 86 86 86 86 86 86 86 86 86
          86 86 86 86 86 86 86 86 86 86 86 86 86 86 86 86 86 86 86 86
          86 86 86 86 86 86 86 86 86 86 86 86 86 86 86 86 86 86 86 86
          86 86 86 86 86 86 86 86 86 86 86 86 86 86 86 86 86 86 86 86
          86 86 86 86 86
************************************ Atom 6 ************************************
   |-- Radial grid size: 59
   |-- Angular grid sizes: 
          86 86 86 86 86 86 86 86 86 86 86 86 86 86 86 86 86 86 86 86
          86 86 86 86 86 86 86 86 86 86 86 86 86 86 86 86 86 86 86 86
          86 86 86 86 86 86 86 86 86 86 86 86 86 86 86 86 86 86 86
************************************ Atom 7 ************************************
   |-- Radial grid size: 59
   |-- Angular grid sizes: 
          86 86 86 86 86 86 86 86 86 86 86 86 86 86 86 86 86 86 86 86
          86 86 86 86 86 86 86 86 86 86 86 86 86 86 86 86 86 86 86 86
          86 86 86 86 86 86 86 86 86 86 86 86 86 86 86 86 86 86 86
************************************ Atom 8 ************************************
   |-- Radial grid size: 59
   |-- Angular grid sizes: 
          86 86 86 86 86 86 86 86 86 86 86 86 86 86 86 86 86 86 86 86
          86 86 86 86 86 86 86 86 86 86 86 86 86 86 86 86 86 86 86 86
          86 86 86 86 86 86 86 86 86 86 86 86 86 86 86 86 86 86 86
--------------------------------------------------------------------------------
================================================================================
 
Performing a density-based AIM analysis with a wavefunction as input.
  Molecular grid    : MolGrid
  Using local grids : True
Iteration       Change      Entropy
        1   1.05099e+01   5.80436e+00
        2   4.80530e-01   7.45856e-01
        3   8.63501e-02   6.32964e-01
        4   2.73807e-02   6.21670e-01
        5   1.26804e-02   6.18402e-01
        6   7.56276e-03   6.16846e-01
        7   5.41584e-03   6.15892e-01
        8   4.29155e-03   6.15242e-01
        9   3.54967e-03   6.14785e-01
       10   2.98240e-03   6.14460e-01
       11   2.51897e-03   6.14229e-01
       12   2.13086e-03   6.14066e-01
       13   1.80301e-03   6.13950e-01
       14   1.52536e-03   6.13869e-01
       15   1.29008e-03   6.13813e-01
       16   1.09074e-03   6.13773e-01
       17   9.21938e-04   6.13746e-01
       18   7.79046e-04   6.13727e-01
       19   6.58146e-04   6.13715e-01
       20   5.55902e-04   6.13706e-01
       21   4.69461e-04   6.13700e-01
       22   3.96397e-04   6.13697e-01
       23   3.34669e-04   6.13694e-01
       24   2.82519e-04   6.13693e-01
       25   2.38476e-04   6.13692e-01
       26   2.01287e-04   6.13692e-01
       27   1.69880e-04   6.13692e-01
       28   1.43370e-04   6.13692e-01
       29   1.20993e-04   6.13692e-01
       30   1.02098e-04   6.13692e-01
       31   8.61579e-05   6.13693e-01
       32   7.27010e-05   6.13693e-01
       33   6.13437e-05   6.13693e-01
       34   5.17634e-05   6.13693e-01
       35   4.36718e-05   6.13693e-01
       36   3.68536e-05   6.13694e-01
       37   3.10942e-05   6.13694e-01
       38   2.62320e-05   6.13694e-01
       39   2.21372e-05   6.13694e-01
       40   1.86750e-05   6.13694e-01
       41   1.57561e-05   6.13694e-01
       42   1.32971e-05   6.13694e-01
       43   1.12147e-05   6.13694e-01
       44   9.46443e-06   6.13694e-01
       45   7.98502e-06   6.13694e-01
       46   6.73464e-06   6.13694e-01
       47   5.68638e-06   6.13695e-01
       48   4.79587e-06   6.13695e-01
       49   4.04363e-06   6.13695e-01
       50   3.41400e-06   6.13695e-01
       51   2.88214e-06   6.13695e-01
       52   2.42792e-06   6.13695e-01
       53   2.05082e-06   6.13695e-01
       54   1.72817e-06   6.13695e-01
       55   1.45879e-06   6.13695e-01
       56   1.23345e-06   6.13695e-01
       57   1.03735e-06   6.13695e-01
       58   8.75899e-07   6.13695e-01

Computing cartesian and pure AIM multipoles and radial AIM moments.
--- Deriving Physical Parameters (alpha, C6, C8, C10, Slater B) ---

Success! Physics anchors for FSI saved to production_results/FSI/results_high.json
>>> Completed: FSI

>>> Starting Production for: TFSI
--- Converting SMILES: [C:1]([F:2])([F:3])([F:4])[S:5](=[O:6])(=[O:7])[N-:8][S:9](=[O:10])(=[O:11])[C:12]([F:13])([F:14])[F:15] to XYZ ---
--- Processing TFSI (Charge: -1 / Basis: def2-TZVP) ---
--- Building Molecule from production_results/TFSI/TFSI.xyz ---
#INFO: **** input file is /home/jmchen/project/PhyNEO-AutoParam/scripts/batch_production.py ****
import sys
import os
from pathlib import Path

# Add project root to path to import local modules
sys.path.append(str(Path(__file__).parent.parent))

from data.mol_smiles import phyneo_name_mapped_smiles
from scripts.smiles_to_dataset_entry import process_smiles

def run_production(target_names=None):
    results_dir = "production_results"
    os.makedirs(results_dir, exist_ok=True)
    
    print(f"=== PhyNEO-AutoParam Batch Production Starting ===")
    print(f"Output Directory: {results_dir}")
    
    # If no targets provided, process all
    targets = target_names if target_names else phyneo_name_mapped_smiles.keys()
    
    for name in targets:
        smiles = phyneo_name_mapped_smiles.get(name)
        if not smiles:
            print(f"Warning: Molecule {name} not found in smiles map.")
            continue
            
        print(f"\n>>> Starting Production for: {name}")
        try:
            # Using production standards: wb97x-d / def2-TZVP
            process_smiles(smiles, name, results_dir=results_dir)
            print(f">>> Completed: {name}")
        except Exception as e:
            print(f">>> Failed: {name} | Error: {e}")

if __name__ == "__main__":
    # Run production for all molecules defined in mol_smiles.py
    run_production()
#INFO: ******************** input file end ********************


System: uname_result(system='Linux', node='bm-220at9g', release='5.15.0-97-generic', version='#107-Ubuntu SMP Wed Feb 7 13:26:48 UTC 2024', machine='x86_64')  Threads 224
Python 3.11.14 (main, Oct 21 2025, 18:31:21) [GCC 11.2.0]
numpy 2.2.6  scipy 1.14.0  h5py 3.15.1
Date: Wed Mar 11 08:53:54 2026
PySCF version 2.12.1
PySCF path  /home/jmchen/miniconda3/envs/auto-multipol/lib/python3.11/site-packages/pyscf

[CONFIG] conf_file None
[INPUT] verbose = 4
[INPUT] num. atoms = 15
[INPUT] num. electrons = 138
[INPUT] charge = -1
[INPUT] spin (= nelec alpha-beta = 2S) = 0
[INPUT] symmetry False subgroup None
[INPUT] Mole.unit = angstrom
[INPUT] Symbol           X                Y                Z      unit          X                Y                Z       unit  Magmom
[INPUT]  1 C     -2.394740000000  -0.022485000000   0.739922000000 AA   -4.525402739541  -0.042490491911   1.398249933540 Bohr   0.0
[INPUT]  2 F     -3.680800000000  -0.467318000000   0.646350000000 AA   -6.955703919299  -0.883103033079   1.221424480613 Bohr   0.0
[INPUT]  3 F     -1.956989000000  -0.377396000000   1.986242000000 AA   -3.698173238786  -0.713175080506   3.753453397108 Bohr   0.0
[INPUT]  4 F     -2.459114000000   1.342693000000   0.746675000000 AA   -4.647051969084   2.537322039371   1.411011254060 Bohr   0.0
[INPUT]  5 S     -1.310292000000  -0.663005000000  -0.580357000000 AA   -2.476093023209  -1.252897869217  -1.096715784474 Bohr   0.0
[INPUT]  6 O     -1.917113000000  -0.179387000000  -1.822480000000 AA   -3.622818519843  -0.338992300307  -3.443988067497 Bohr   0.0
[INPUT]  7 O     -1.336766000000  -2.118843000000  -0.410580000000 AA   -2.526121632630  -4.004032970952  -0.775883752224 Bohr   0.0
[INPUT]  8 N      0.013229000000   0.054761000000  -0.090677000000 AA    0.024999186902   0.103483292307  -0.171354695797 Bohr   0.0
[INPUT]  9 S      1.159504000000   0.039177000000  -1.182689000000 AA    2.191145000338   0.074033800382  -2.234958300536 Bohr   0.0
[INPUT] 10 O      1.568063000000  -1.264743000000  -1.709813000000 AA    2.963209616064  -2.390017887961  -3.231078294221 Bohr   0.0
[INPUT] 11 O      1.093205000000   1.111137000000  -2.180435000000 AA    2.065858048005   2.099744616871  -4.120424982416 Bohr   0.0
[INPUT] 12 C      2.517052000000   0.528544000000  -0.065990000000 AA    4.756538921289   0.998803404782  -0.124703026960 Bohr   0.0
[INPUT] 13 F      2.696934000000  -0.358859000000   0.957778000000 AA    5.096466636028  -0.678145227335   1.809938108134 Bohr   0.0
[INPUT] 14 F      3.722047000000   0.638039000000  -0.695732000000 AA    7.033649452759   1.205718966791  -1.314742936096 Bohr   0.0
[INPUT] 15 F      2.285778000000   1.737687000000   0.530148000000 AA    4.319494401556   3.283752520217   1.001834525486 Bohr   0.0

nuclear repulsion = 1568.89113188849
number of shells = 169
number of NR pGTOs = 724
number of NR cGTOs = 477
basis = def2-TZVP
ecp = {}
CPU time:    685314.20
--- Running DFT (wb97xd/def2-TZVP) on CPU ---
--- High-quality functional detected: Setting grid level to 4 for better density tails ---


******** <class 'pyscf.dft.rks.RKS'> ********
method = RKS
initial guess = minao
damping factor = 0
level_shift factor = 0
DIIS = <class 'pyscf.scf.diis.CDIIS'>
diis_start_cycle = 1
diis_space = 8
diis_damp = 0
SCF conv_tol = 1e-09
SCF conv_tol_grad = None
SCF max_cycles = 50
direct_scf = True
direct_scf_tol = 1e-13
chkfile to save SCF result = /tmp/tmpcp0cm2jn
max_memory 4000 MB (current use 2585 MB)
XC library pyscf.dft.libxc version 7.0.0
    S. Lehtola, C. Steigemann, M. J.T. Oliveira, and M. A.L. Marques.,  SoftwareX 7, 1–5 (2018)
XC functionals = wb97xd
    J.-D. Chai and M. Head-Gordon.,  Phys. Chem. Chem. Phys. 10, 6615-6620 (2008)
radial grids: 
    Treutler-Ahlrichs [JCP 102, 346 (1995); DOI:10.1063/1.469408] (M4) radial grids
    
becke partition: Becke, JCP 88, 2547 (1988); DOI:10.1063/1.454033
pruning grids: <function nwchem_prune at 0x7f35a5008680>
grids dens level: 4
symmetrized grids: False
atomic radii adjust function: <function treutler_atomic_radii_adjust at 0x7f35a50084a0>
small_rho_cutoff = 1e-07
Set gradient conv threshold to 3.16228e-05
Initial guess from minao.
tot grids = 428528
init E= -1830.78804817363
  HOMO = -0.329101291039862  LUMO = 0.00333421408456028
cycle= 1 E= -1826.56058188002  delta_E= 4.23  |g|= 2.28  |ddm|= 3.97
  HOMO = -0.121099986158144  LUMO = 0.0263886110939569
cycle= 2 E= -1824.99141294421  delta_E= 1.57  |g|= 3.92  |ddm|= 3.09
  HOMO = -0.189890871122775  LUMO = 0.214725183114413
cycle= 3 E= -1827.47786948288  delta_E= -2.49  |g|= 0.331  |ddm|= 2.01
  HOMO = -0.224584262009067  LUMO = 0.200115202558022
cycle= 4 E= -1827.49133823575  delta_E= -0.0135  |g|= 0.207  |ddm|= 0.294
  HOMO = -0.222710924363587  LUMO = 0.20329203664391
cycle= 5 E= -1827.49894332323  delta_E= -0.00761  |g|= 0.0203  |ddm|= 0.109
  HOMO = -0.220740328656346  LUMO = 0.206621221071109
cycle= 6 E= -1827.4990347748  delta_E= -9.15e-05  |g|= 0.00746  |ddm|= 0.0235
  HOMO = -0.22133366621321  LUMO = 0.206170216578936
cycle= 7 E= -1827.49904412137  delta_E= -9.35e-06  |g|= 0.00396  |ddm|= 0.00728
  HOMO = -0.221447749193441  LUMO = 0.206073777744899
cycle= 8 E= -1827.49904702536  delta_E= -2.9e-06  |g|= 0.00109  |ddm|= 0.00301
  HOMO = -0.221375293899594  LUMO = 0.206078254768412
cycle= 9 E= -1827.49904730441  delta_E= -2.79e-07  |g|= 0.000364  |ddm|= 0.00112
  HOMO = -0.22138783271845  LUMO = 0.206069046297341
cycle= 10 E= -1827.49904733855  delta_E= -3.41e-08  |g|= 0.000136  |ddm|= 0.00045
  HOMO = -0.22139021180382  LUMO = 0.206071589288661
cycle= 11 E= -1827.49904734295  delta_E= -4.4e-09  |g|= 4.94e-05  |ddm|= 0.000151
  HOMO = -0.22138631309698  LUMO = 0.206074312583592
cycle= 12 E= -1827.49904734357  delta_E= -6.13e-10  |g|= 1.76e-05  |ddm|= 5e-05
  HOMO = -0.22138672345377  LUMO = 0.206073378410476
Extra cycle  E= -1827.49904734361  delta_E= -4.91e-11  |g|= 1.92e-05  |ddm|= 2.61e-05
converged SCF energy = -1827.49904734361
--- Performing MBIS Partitioning (HORTON 3) ---

================================================================================
Information of integral grids.
--------------------------------------------------------------------------------
Grid size of molecular grid: 79722
************************************ Atom 0 ************************************
   |-- Radial grid size: 59
   |-- Angular grid sizes: 
          86 86 86 86 86 86 86 86 86 86 86 86 86 86 86 86 86 86 86 86
          86 86 86 86 86 86 86 86 86 86 86 86 86 86 86 86 86 86 86 86
          86 86 86 86 86 86 86 86 86 86 86 86 86 86 86 86 86 86 86
************************************ Atom 1 ************************************
   |-- Radial grid size: 59
   |-- Angular grid sizes: 
          86 86 86 86 86 86 86 86 86 86 86 86 86 86 86 86 86 86 86 86
          86 86 86 86 86 86 86 86 86 86 86 86 86 86 86 86 86 86 86 86
          86 86 86 86 86 86 86 86 86 86 86 86 86 86 86 86 86 86 86
************************************ Atom 2 ************************************
   |-- Radial grid size: 59
   |-- Angular grid sizes: 
          86 86 86 86 86 86 86 86 86 86 86 86 86 86 86 86 86 86 86 86
          86 86 86 86 86 86 86 86 86 86 86 86 86 86 86 86 86 86 86 86
          86 86 86 86 86 86 86 86 86 86 86 86 86 86 86 86 86 86 86
************************************ Atom 3 ************************************
   |-- Radial grid size: 59
   |-- Angular grid sizes: 
          86 86 86 86 86 86 86 86 86 86 86 86 86 86 86 86 86 86 86 86
          86 86 86 86 86 86 86 86 86 86 86 86 86 86 86 86 86 86 86 86
          86 86 86 86 86 86 86 86 86 86 86 86 86 86 86 86 86 86 86
************************************ Atom 4 ************************************
   |-- Radial grid size: 85
   |-- Angular grid sizes: 
          86 86 86 86 86 86 86 86 86 86 86 86 86 86 86 86 86 86 86 86
          86 86 86 86 86 86 86 86 86 86 86 86 86 86 86 86 86 86 86 86
          86 86 86 86 86 86 86 86 86 86 86 86 86 86 86 86 86 86 86 86
          86 86 86 86 86 86 86 86 86 86 86 86 86 86 86 86 86 86 86 86
          86 86 86 86 86
************************************ Atom 5 ************************************
   |-- Radial grid size: 59
   |-- Angular grid sizes: 
          86 86 86 86 86 86 86 86 86 86 86 86 86 86 86 86 86 86 86 86
          86 86 86 86 86 86 86 86 86 86 86 86 86 86 86 86 86 86 86 86
          86 86 86 86 86 86 86 86 86 86 86 86 86 86 86 86 86 86 86
************************************ Atom 6 ************************************
   |-- Radial grid size: 59
   |-- Angular grid sizes: 
          86 86 86 86 86 86 86 86 86 86 86 86 86 86 86 86 86 86 86 86
          86 86 86 86 86 86 86 86 86 86 86 86 86 86 86 86 86 86 86 86
          86 86 86 86 86 86 86 86 86 86 86 86 86 86 86 86 86 86 86
************************************ Atom 7 ************************************
   |-- Radial grid size: 49
   |-- Angular grid sizes: 
          86 86 86 86 86 86 86 86 86 86 86 86 86 86 86 86 86 86 86 86
          86 86 86 86 86 86 86 86 86 86 86 86 86 86 86 86 86 86 86 86
          86 86 86 86 86 86 86 86 86
************************************ Atom 8 ************************************
   |-- Radial grid size: 85
   |-- Angular grid sizes: 
          86 86 86 86 86 86 86 86 86 86 86 86 86 86 86 86 86 86 86 86
          86 86 86 86 86 86 86 86 86 86 86 86 86 86 86 86 86 86 86 86
          86 86 86 86 86 86 86 86 86 86 86 86 86 86 86 86 86 86 86 86
          86 86 86 86 86 86 86 86 86 86 86 86 86 86 86 86 86 86 86 86
          86 86 86 86 86
************************************ Atom 9 ************************************
   |-- Radial grid size: 59
   |-- Angular grid sizes: 
          86 86 86 86 86 86 86 86 86 86 86 86 86 86 86 86 86 86 86 86
          86 86 86 86 86 86 86 86 86 86 86 86 86 86 86 86 86 86 86 86
          86 86 86 86 86 86 86 86 86 86 86 86 86 86 86 86 86 86 86
*********************************** Atom 10 ************************************
   |-- Radial grid size: 59
   |-- Angular grid sizes: 
          86 86 86 86 86 86 86 86 86 86 86 86 86 86 86 86 86 86 86 86
          86 86 86 86 86 86 86 86 86 86 86 86 86 86 86 86 86 86 86 86
          86 86 86 86 86 86 86 86 86 86 86 86 86 86 86 86 86 86 86
*********************************** Atom 11 ************************************
   |-- Radial grid size: 59
   |-- Angular grid sizes: 
          86 86 86 86 86 86 86 86 86 86 86 86 86 86 86 86 86 86 86 86
          86 86 86 86 86 86 86 86 86 86 86 86 86 86 86 86 86 86 86 86
          86 86 86 86 86 86 86 86 86 86 86 86 86 86 86 86 86 86 86
*********************************** Atom 12 ************************************
   |-- Radial grid size: 59
   |-- Angular grid sizes: 
          86 86 86 86 86 86 86 86 86 86 86 86 86 86 86 86 86 86 86 86
          86 86 86 86 86 86 86 86 86 86 86 86 86 86 86 86 86 86 86 86
          86 86 86 86 86 86 86 86 86 86 86 86 86 86 86 86 86 86 86
*********************************** Atom 13 ************************************
   |-- Radial grid size: 59
   |-- Angular grid sizes: 
          86 86 86 86 86 86 86 86 86 86 86 86 86 86 86 86 86 86 86 86
          86 86 86 86 86 86 86 86 86 86 86 86 86 86 86 86 86 86 86 86
          86 86 86 86 86 86 86 86 86 86 86 86 86 86 86 86 86 86 86
*********************************** Atom 14 ************************************
   |-- Radial grid size: 59
   |-- Angular grid sizes: 
          86 86 86 86 86 86 86 86 86 86 86 86 86 86 86 86 86 86 86 86
          86 86 86 86 86 86 86 86 86 86 86 86 86 86 86 86 86 86 86 86
          86 86 86 86 86 86 86 86 86 86 86 86 86 86 86 86 86 86 86
--------------------------------------------------------------------------------
================================================================================
 
Performing a density-based AIM analysis with a wavefunction as input.
  Molecular grid    : MolGrid
  Using local grids : True
Iteration       Change      Entropy
        1   1.07116e+01   1.05420e+01
        2   7.30625e-01   1.27424e+00
        3   1.13305e-01   1.01959e+00
        4   3.87364e-02   9.89666e-01
        5   2.24380e-02   9.77930e-01
        6   1.61328e-02   9.71589e-01
        7   1.24530e-02   9.67757e-01
        8   9.86662e-03   9.65331e-01
        9   7.90264e-03   9.63761e-01
       10   6.35862e-03   9.62734e-01
       11   5.12565e-03   9.62057e-01
       12   4.13446e-03   9.61609e-01
       13   3.33554e-03   9.61311e-01
       14   2.69103e-03   9.61112e-01
       15   2.17105e-03   9.60979e-01
       16   1.75163e-03   9.60889e-01
       17   1.41344e-03   9.60827e-01
       18   1.14084e-03   9.60786e-01
       19   9.21189e-04   9.60757e-01
       20   7.44257e-04   9.60737e-01
       21   6.01790e-04   9.60722e-01
       22   4.87088e-04   9.60712e-01
       23   3.94774e-04   9.60705e-01
       24   3.20475e-04   9.60700e-01
       25   2.60682e-04   9.60696e-01
       26   2.12557e-04   9.60693e-01
       27   1.73806e-04   9.60691e-01
       28   1.42593e-04   9.60689e-01
       29   1.17425e-04   9.60688e-01
       30   9.71004e-05   9.60687e-01
       31   8.06690e-05   9.60686e-01
       32   6.73411e-05   9.60686e-01
       33   5.65077e-05   9.60685e-01
       34   4.76638e-05   9.60685e-01
       35   4.04106e-05   9.60685e-01
       36   3.44380e-05   9.60684e-01
       37   2.94884e-05   9.60684e-01
       38   2.53583e-05   9.60684e-01
       39   2.19009e-05   9.60684e-01
       40   1.89772e-05   9.60684e-01
       41   1.64988e-05   9.60684e-01
       42   1.43830e-05   9.60684e-01
       43   1.25638e-05   9.60684e-01
       44   1.09985e-05   9.60683e-01
       45   9.64158e-06   9.60683e-01
       46   8.46222e-06   9.60683e-01
       47   7.43621e-06   9.60683e-01
       48   6.53864e-06   9.60683e-01
       49   5.75121e-06   9.60683e-01
       50   5.06222e-06   9.60683e-01
       51   4.45843e-06   9.60683e-01
       52   3.92661e-06   9.60683e-01
       53   3.45739e-06   9.60683e-01
       54   3.04373e-06   9.60683e-01
       55   2.68426e-06   9.60683e-01
       56   2.36418e-06   9.60683e-01
       57   2.08281e-06   9.60683e-01
       58   1.82948e-06   9.60683e-01
       59   1.61628e-06   9.60683e-01
       60   1.42283e-06   9.60683e-01
       61   1.25275e-06   9.60683e-01
       62   1.09882e-06   9.60683e-01
       63   9.71958e-07   9.60683e-01

[08:55:22] UFFTYPER: Unrecognized charge state for atom: 1
Computing cartesian and pure AIM multipoles and radial AIM moments.
--- Deriving Physical Parameters (alpha, C6, C8, C10, Slater B) ---

Success! Physics anchors for TFSI saved to production_results/TFSI/results_high.json
>>> Completed: TFSI

>>> Starting Production for: DFP
--- Converting SMILES: [O:1]=[P-:2](=[O:3])([F:4])[F:5] to XYZ ---
--- Processing DFP (Charge: -1 / Basis: def2-TZVP) ---
--- Building Molecule from production_results/DFP/DFP.xyz ---
#INFO: **** input file is /home/jmchen/project/PhyNEO-AutoParam/scripts/batch_production.py ****
import sys
import os
from pathlib import Path

# Add project root to path to import local modules
sys.path.append(str(Path(__file__).parent.parent))

from data.mol_smiles import phyneo_name_mapped_smiles
from scripts.smiles_to_dataset_entry import process_smiles

def run_production(target_names=None):
    results_dir = "production_results"
    os.makedirs(results_dir, exist_ok=True)
    
    print(f"=== PhyNEO-AutoParam Batch Production Starting ===")
    print(f"Output Directory: {results_dir}")
    
    # If no targets provided, process all
    targets = target_names if target_names else phyneo_name_mapped_smiles.keys()
    
    for name in targets:
        smiles = phyneo_name_mapped_smiles.get(name)
        if not smiles:
            print(f"Warning: Molecule {name} not found in smiles map.")
            continue
            
        print(f"\n>>> Starting Production for: {name}")
        try:
            # Using production standards: wb97x-d / def2-TZVP
            process_smiles(smiles, name, results_dir=results_dir)
            print(f">>> Completed: {name}")
        except Exception as e:
            print(f">>> Failed: {name} | Error: {e}")

if __name__ == "__main__":
    # Run production for all molecules defined in mol_smiles.py
    run_production()
#INFO: ******************** input file end ********************


System: uname_result(system='Linux', node='bm-220at9g', release='5.15.0-97-generic', version='#107-Ubuntu SMP Wed Feb 7 13:26:48 UTC 2024', machine='x86_64')  Threads 224
Python 3.11.14 (main, Oct 21 2025, 18:31:21) [GCC 11.2.0]
numpy 2.2.6  scipy 1.14.0  h5py 3.15.1
Date: Wed Mar 11 08:55:22 2026
PySCF version 2.12.1
PySCF path  /home/jmchen/miniconda3/envs/auto-multipol/lib/python3.11/site-packages/pyscf

[CONFIG] conf_file None
[INPUT] verbose = 4
[INPUT] num. atoms = 5
[INPUT] num. electrons = 50
[INPUT] charge = -1
[INPUT] spin (= nelec alpha-beta = 2S) = 0
[INPUT] symmetry False subgroup None
[INPUT] Mole.unit = angstrom
[INPUT] Symbol           X                Y                Z      unit          X                Y                Z       unit  Magmom
[INPUT]  1 O      0.008020000000  -0.903545000000  -1.264687000000 AA    0.015155603519  -1.707452591220  -2.389912063298 Bohr   0.0
[INPUT]  2 P     -0.014704000000  -0.089359000000   0.005861000000 AA   -0.027786532936  -0.168864036765   0.011075684816 Bohr   0.0
[INPUT]  3 O     -0.269441000000  -0.685159000000   1.368886000000 AA   -0.509169696729  -1.294762861781   2.586819635751 Bohr   0.0
[INPUT]  4 F      1.384644000000   0.643583000000   0.092511000000 AA    2.616597940022   1.216195608426   0.174820453510 Bohr   0.0
[INPUT]  5 F     -1.108518000000   1.034480000000  -0.202571000000 AA   -2.094795424151   1.954883881340  -0.382803710779 Bohr   0.0

nuclear repulsion = 265.630861898593
number of shells = 57
number of NR pGTOs = 247
number of NR cGTOs = 161
basis = def2-TZVP
ecp = {}
CPU time:    694420.72
--- Running DFT (wb97xd/def2-TZVP) on CPU ---
--- High-quality functional detected: Setting grid level to 4 for better density tails ---


******** <class 'pyscf.dft.rks.RKS'> ********
method = RKS
initial guess = minao
damping factor = 0
level_shift factor = 0
DIIS = <class 'pyscf.scf.diis.CDIIS'>
diis_start_cycle = 1
diis_space = 8
diis_damp = 0
SCF conv_tol = 1e-09
SCF conv_tol_grad = None
SCF max_cycles = 50
direct_scf = True
direct_scf_tol = 1e-13
chkfile to save SCF result = /tmp/tmpd34cmfvy
max_memory 4000 MB (current use 2745 MB)
XC library pyscf.dft.libxc version 7.0.0
    S. Lehtola, C. Steigemann, M. J.T. Oliveira, and M. A.L. Marques.,  SoftwareX 7, 1–5 (2018)
XC functionals = wb97xd
    J.-D. Chai and M. Head-Gordon.,  Phys. Chem. Chem. Phys. 10, 6615-6620 (2008)
radial grids: 
    Treutler-Ahlrichs [JCP 102, 346 (1995); DOI:10.1063/1.469408] (M4) radial grids
    
becke partition: Becke, JCP 88, 2547 (1988); DOI:10.1063/1.454033
pruning grids: <function nwchem_prune at 0x7f35a5008680>
grids dens level: 4
symmetrized grids: False
atomic radii adjust function: <function treutler_atomic_radii_adjust at 0x7f35a50084a0>
small_rho_cutoff = 1e-07
Set gradient conv threshold to 3.16228e-05
Initial guess from minao.
tot grids = 143272
init E= -692.302564314943
  HOMO = -0.454440755629227  LUMO = 0.00659065362121745
cycle= 1 E= -691.479268113417  delta_E= 0.823  |g|= 1.32  |ddm|=  2.4
  HOMO = 0.00868690655629589  LUMO = 0.336941638014718
cycle= 2 E= -691.28106369061  delta_E= 0.198  |g|= 1.76  |ddm|= 1.55
  HOMO = -0.153652861057795  LUMO = 0.344986457905434
cycle= 3 E= -691.777278696793  delta_E= -0.496  |g|= 0.144  |ddm|= 0.915
  HOMO = -0.152919322574101  LUMO = 0.333882435557429
cycle= 4 E= -691.779860395154  delta_E= -0.00258  |g|= 0.0521  |ddm|= 0.0793
  HOMO = -0.16035372502038  LUMO = 0.332703266127027
cycle= 5 E= -691.780231379871  delta_E= -0.000371  |g|= 0.00824  |ddm|= 0.0316
  HOMO = -0.159745785329355  LUMO = 0.33370964987873
cycle= 6 E= -691.780244150396  delta_E= -1.28e-05  |g|= 0.00277  |ddm|= 0.0121
  HOMO = -0.160419246966571  LUMO = 0.33323184410355
cycle= 7 E= -691.780245446982  delta_E= -1.3e-06  |g|= 0.00027  |ddm|= 0.00297
  HOMO = -0.160426817781703  LUMO = 0.333193106708848
cycle= 8 E= -691.780245477983  delta_E= -3.1e-08  |g|= 5.64e-05  |ddm|= 0.000984
  HOMO = -0.160419690793753  LUMO = 0.333191842937218
cycle= 9 E= -691.780245479858  delta_E= -1.87e-09  |g|= 1.06e-05  |ddm|= 0.000256
  HOMO = -0.16041954346157  LUMO = 0.333193466316213
cycle= 10 E= -691.780245479924  delta_E= -6.64e-11  |g|= 3e-06  |ddm|= 3.55e-05
  HOMO = -0.160419749448963  LUMO = 0.333193197972041
Extra cycle  E= -691.780245479926  delta_E= -2.27e-12  |g|= 2e-06  |ddm|= 6.73e-06
converged SCF energy = -691.780245479926
--- Performing MBIS Partitioning (HORTON 3) ---

================================================================================
Information of integral grids.
--------------------------------------------------------------------------------
Grid size of molecular grid: 27606
************************************ Atom 0 ************************************
   |-- Radial grid size: 59
   |-- Angular grid sizes: 
          86 86 86 86 86 86 86 86 86 86 86 86 86 86 86 86 86 86 86 86
          86 86 86 86 86 86 86 86 86 86 86 86 86 86 86 86 86 86 86 86
          86 86 86 86 86 86 86 86 86 86 86 86 86 86 86 86 86 86 86
************************************ Atom 1 ************************************
   |-- Radial grid size: 85
   |-- Angular grid sizes: 
          86 86 86 86 86 86 86 86 86 86 86 86 86 86 86 86 86 86 86 86
          86 86 86 86 86 86 86 86 86 86 86 86 86 86 86 86 86 86 86 86
          86 86 86 86 86 86 86 86 86 86 86 86 86 86 86 86 86 86 86 86
          86 86 86 86 86 86 86 86 86 86 86 86 86 86 86 86 86 86 86 86
          86 86 86 86 86
************************************ Atom 2 ************************************
   |-- Radial grid size: 59
   |-- Angular grid sizes: 
          86 86 86 86 86 86 86 86 86 86 86 86 86 86 86 86 86 86 86 86
          86 86 86 86 86 86 86 86 86 86 86 86 86 86 86 86 86 86 86 86
          86 86 86 86 86 86 86 86 86 86 86 86 86 86 86 86 86 86 86
************************************ Atom 3 ************************************
   |-- Radial grid size: 59
   |-- Angular grid sizes: 
          86 86 86 86 86 86 86 86 86 86 86 86 86 86 86 86 86 86 86 86
          86 86 86 86 86 86 86 86 86 86 86 86 86 86 86 86 86 86 86 86
          86 86 86 86 86 86 86 86 86 86 86 86 86 86 86 86 86 86 86
************************************ Atom 4 ************************************
   |-- Radial grid size: 59
   |-- Angular grid sizes: 
          86 86 86 86 86 86 86 86 86 86 86 86 86 86 86 86 86 86 86 86
          86 86 86 86 86 86 86 86 86 86 86 86 86 86 86 86 86 86 86 86
          86 86 86 86 86 86 86 86 86 86 86 86 86 86 86 86 86 86 86
--------------------------------------------------------------------------------
================================================================================
 
Performing a density-based AIM analysis with a wavefunction as input.
  Molecular grid    : MolGrid
  Using local grids : True
Iteration       Change      Entropy
        1   7.59807e+00   4.27228e+00
        2   3.67518e-01   3.34833e-01
        3   6.13733e-02   2.69702e-01
        4   1.88481e-02   2.63086e-01
        5   1.01856e-02   2.60302e-01
        6   7.83480e-03   2.58479e-01
        7   6.62183e-03   2.57181e-01
        8   5.67701e-03   2.56246e-01
        9   4.86003e-03   2.55575e-01
       10   4.14429e-03   2.55094e-01
       11   3.52056e-03   2.54751e-01
       12   2.98110e-03   2.54508e-01
       13   2.51761e-03   2.54336e-01
       14   2.12155e-03   2.54214e-01
       15   1.78458e-03   2.54129e-01
       16   1.49889e-03   2.54069e-01
       17   1.25737e-03   2.54027e-01
       18   1.05368e-03   2.53997e-01
       19   8.82225e-04   2.53977e-01
       20   7.38130e-04   2.53962e-01
       21   6.17209e-04   2.53952e-01
       22   5.15831e-04   2.53945e-01
       23   4.30926e-04   2.53941e-01
       24   3.59873e-04   2.53937e-01
       25   3.00440e-04   2.53935e-01
       26   2.50772e-04   2.53933e-01
       27   2.09261e-04   2.53932e-01
       28   1.74603e-04   2.53931e-01
       29   1.45660e-04   2.53931e-01
       30   1.21494e-04   2.53930e-01
       31   1.01338e-04   2.53930e-01
       32   8.45112e-05   2.53930e-01
       33   7.04770e-05   2.53930e-01
       34   5.87694e-05   2.53930e-01
       35   4.90068e-05   2.53930e-01
       36   4.08624e-05   2.53929e-01
       37   3.40671e-05   2.53929e-01
       38   2.84031e-05   2.53929e-01
       39   2.36798e-05   2.53929e-01
       40   1.97435e-05   2.53929e-01
       41   1.64590e-05   2.53929e-01
       42   1.37250e-05   2.53929e-01
       43   1.14403e-05   2.53929e-01
       44   9.53676e-06   2.53929e-01
       45   7.95079e-06   2.53929e-01
       46   6.62789e-06   2.53929e-01
       47   5.52848e-06   2.53929e-01
       48   4.60319e-06   2.53929e-01
       49   3.84303e-06   2.53929e-01
       50   3.20392e-06   2.53929e-01
       51   2.66580e-06   2.53929e-01
       52   2.22726e-06   2.53929e-01
       53   1.85143e-06   2.53929e-01
       54   1.54867e-06   2.53929e-01
       55   1.28807e-06   2.53929e-01
       56   1.07474e-06   2.53929e-01
       57   8.97991e-07   2.53929e-01

Computing cartesian and pure AIM multipoles and radial AIM moments.
--- Deriving Physical Parameters (alpha, C6, C8, C10, Slater B) ---

Success! Physics anchors for DFP saved to production_results/DFP/results_high.json
>>> Completed: DFP

>>> Starting Production for: BOB
--- Converting SMILES: [B-:1]12([O:2][C:3](=[O:4])[C:5](=[O:6])[O:7]1)[O:8][C:9](=[O:10])[C:11](=[O:12])[O:13]2 to XYZ ---
--- Processing BOB (Charge: -1 / Basis: def2-TZVP) ---
--- Building Molecule from production_results/BOB/BOB.xyz ---
#INFO: **** input file is /home/jmchen/project/PhyNEO-AutoParam/scripts/batch_production.py ****
import sys
import os
from pathlib import Path

# Add project root to path to import local modules
sys.path.append(str(Path(__file__).parent.parent))

from data.mol_smiles import phyneo_name_mapped_smiles
from scripts.smiles_to_dataset_entry import process_smiles

def run_production(target_names=None):
    results_dir = "production_results"
    os.makedirs(results_dir, exist_ok=True)
    
    print(f"=== PhyNEO-AutoParam Batch Production Starting ===")
    print(f"Output Directory: {results_dir}")
    
    # If no targets provided, process all
    targets = target_names if target_names else phyneo_name_mapped_smiles.keys()
    
    for name in targets:
        smiles = phyneo_name_mapped_smiles.get(name)
        if not smiles:
            print(f"Warning: Molecule {name} not found in smiles map.")
            continue
            
        print(f"\n>>> Starting Production for: {name}")
        try:
            # Using production standards: wb97x-d / def2-TZVP
            process_smiles(smiles, name, results_dir=results_dir)
            print(f">>> Completed: {name}")
        except Exception as e:
            print(f">>> Failed: {name} | Error: {e}")

if __name__ == "__main__":
    # Run production for all molecules defined in mol_smiles.py
    run_production()
#INFO: ******************** input file end ********************


System: uname_result(system='Linux', node='bm-220at9g', release='5.15.0-97-generic', version='#107-Ubuntu SMP Wed Feb 7 13:26:48 UTC 2024', machine='x86_64')  Threads 224
Python 3.11.14 (main, Oct 21 2025, 18:31:21) [GCC 11.2.0]
numpy 2.2.6  scipy 1.14.0  h5py 3.15.1
Date: Wed Mar 11 08:55:41 2026
PySCF version 2.12.1
PySCF path  /home/jmchen/miniconda3/envs/auto-multipol/lib/python3.11/site-packages/pyscf

[CONFIG] conf_file None
[INPUT] verbose = 4
[INPUT] num. atoms = 13
[INPUT] num. electrons = 94
[INPUT] charge = -1
[INPUT] spin (= nelec alpha-beta = 2S) = 0
[INPUT] symmetry False subgroup None
[INPUT] Mole.unit = angstrom
[INPUT] Symbol           X                Y                Z      unit          X                Y                Z       unit  Magmom
[...]
   |-- Radial grid size: 34
   |-- Angular grid sizes: 
          86 86 86 86 86 86 86 86 86 86 86 86 86 86 86 86 86 86 86 86
          86 86 86 86 86 86 86 86 86 86 86 86 86 86
*********************************** Atom 22 ************************************
   |-- Radial grid size: 34
   |-- Angular grid sizes: 
          86 86 86 86 86 86 86 86 86 86 86 86 86 86 86 86 86 86 86 86
          86 86 86 86 86 86 86 86 86 86 86 86 86 86
--------------------------------------------------------------------------------
================================================================================
 
Performing a density-based AIM analysis with a wavefunction as input.
  Molecular grid    : MolGrid
  Using local grids : True
Iteration       Change      Entropy
        1   1.71280e+00   2.72675e+00
        2   3.07236e-01   9.63702e-01
        3   7.93165e-02   8.28414e-01
        4   3.23526e-02   8.05558e-01
        5   1.98938e-02   7.94985e-01
        6   1.49421e-02   7.87848e-01
        7   1.20490e-02   7.82706e-01
        8   9.99754e-03   7.78944e-01
        9   8.41241e-03   7.76174e-01
       10   7.13501e-03   7.74123e-01
       11   6.08182e-03   7.72600e-01
       12   5.20182e-03   7.71464e-01
       13   4.46034e-03   7.70615e-01
       14   3.83208e-03   7.69979e-01
       15   3.29767e-03   7.69500e-01
       16   2.84173e-03   7.69139e-01
       17   2.45183e-03   7.68867e-01
       18   2.11780e-03   7.68660e-01
       19   1.83115e-03   7.68504e-01
       20   1.58481e-03   7.68385e-01
       21   1.37285e-03   7.68294e-01
       22   1.19024e-03   7.68225e-01
       23   1.03276e-03   7.68172e-01
       24   8.96814e-04   7.68132e-01
       25   7.79331e-04   7.68101e-01
       26   6.77713e-04   7.68077e-01
       27   5.89742e-04   7.68058e-01
       28   5.13521e-04   7.68044e-01
       29   4.47423e-04   7.68033e-01
       30   3.90061e-04   7.68025e-01
       31   3.40245e-04   7.68018e-01
       32   2.96949e-04   7.68013e-01
       33   2.59291e-04   7.68009e-01
       34   2.26520e-04   7.68006e-01
       35   1.97983e-04   7.68004e-01
       36   1.73115e-04   7.68002e-01
       37   1.51432e-04   7.68001e-01
       38   1.32519e-04   7.67999e-01
       39   1.16011e-04   7.67999e-01
       40   1.01595e-04   7.67998e-01
       41   8.89977e-05   7.67997e-01
       42   7.79897e-05   7.67997e-01
       43   6.83626e-05   7.67997e-01
       44   5.99404e-05   7.67996e-01
       45   5.25702e-05   7.67996e-01
       46   4.61162e-05   7.67996e-01
       47   4.04670e-05   7.67996e-01
       48   3.55156e-05   7.67996e-01
       49   3.11765e-05   7.67996e-01
       50   2.73724e-05   7.67996e-01
       51   2.40388e-05   7.67996e-01
       52   2.11145e-05   7.67996e-01
       53   1.85468e-05   7.67996e-01
       54   1.62960e-05   7.67996e-01
       55   1.43200e-05   7.67996e-01
       56   1.25859e-05   7.67996e-01
       57   1.10612e-05   7.67996e-01
       58   9.72295e-06   7.67996e-01
       59   8.55009e-06   7.67996e-01
       60   7.51737e-06   7.67996e-01
       61   6.61006e-06   7.67996e-01
       62   5.81202e-06   7.67996e-01
       63   5.11399e-06   7.67996e-01
       64   4.49753e-06   7.67996e-01
       65   3.95533e-06   7.67996e-01
       66   3.48015e-06   7.67996e-01
       67   3.06218e-06   7.67996e-01
       68   2.69531e-06   7.67996e-01
       69   2.36954e-06   7.67996e-01
       70   2.08602e-06   7.67996e-01
       71   1.83646e-06   7.67996e-01
       72   1.61577e-06   7.67996e-01
       73   1.42189e-06   7.67996e-01
       74   1.25087e-06   7.67996e-01
       75   1.10282e-06   7.67996e-01
       76   9.69833e-07   7.67996e-01

Computing cartesian and pure AIM multipoles and radial AIM moments.
--- Deriving Physical Parameters (alpha, C6, C8, C10, Slater B) ---

Success! Physics anchors for G3 saved to production_results/G3/results_high.json
>>> Completed: G3

>>> Starting Production for: PEO
--- Converting SMILES: [C:1]([H:7])([H:8])([H:9])[C:2]([H:10])([H:11])[O:3][C:4]([H:12])([H:13])[C:5]([H:14])([H:15])[O:6][H:16] to XYZ ---
--- Processing PEO (Charge: 0 / Basis: def2-TZVP) ---
--- Building Molecule from production_results/PEO/PEO.xyz ---
#INFO: **** input file is /home/jmchen/project/PhyNEO-AutoParam/scripts/batch_production.py ****
import sys
import os
from pathlib import Path

# Add project root to path to import local modules
sys.path.append(str(Path(__file__).parent.parent))

from data.mol_smiles import phyneo_name_mapped_smiles
from scripts.smiles_to_dataset_entry import process_smiles

def run_production(target_names=None):
    results_dir = "production_results"
    os.makedirs(results_dir, exist_ok=True)
    
    print(f"=== PhyNEO-AutoParam Batch Production Starting ===")
    print(f"Output Directory: {results_dir}")
    
    # If no targets provided, process all
    targets = target_names if target_names else phyneo_name_mapped_smiles.keys()
    
    for name in targets:
        smiles = phyneo_name_mapped_smiles.get(name)
        if not smiles:
            print(f"Warning: Molecule {name} not found in smiles map.")
            continue
            
        print(f"\n>>> Starting Production for: {name}")
        try:
            # Using production standards: wb97x-d / def2-TZVP
            process_smiles(smiles, name, results_dir=results_dir)
            print(f">>> Completed: {name}")
        except Exception as e:
            print(f">>> Failed: {name} | Error: {e}")

if __name__ == "__main__":
    # Run production for all molecules defined in mol_smiles.py
    run_production()
#INFO: ******************** input file end ********************


System: uname_result(system='Linux', node='bm-220at9g', release='5.15.0-97-generic', version='#107-Ubuntu SMP Wed Feb 7 13:26:48 UTC 2024', machine='x86_64')  Threads 224
Python 3.11.14 (main, Oct 21 2025, 18:31:21) [GCC 11.2.0]
numpy 2.2.6  scipy 1.14.0  h5py 3.15.1
Date: Wed Mar 11 09:23:40 2026
PySCF version 2.12.1
PySCF path  /home/jmchen/miniconda3/envs/auto-multipol/lib/python3.11/site-packages/pyscf

[CONFIG] conf_file None
[INPUT] verbose = 4
[INPUT] num. atoms = 16
[INPUT] num. electrons = 50
[INPUT] charge = 0
[INPUT] spin (= nelec alpha-beta = 2S) = 0
[INPUT] symmetry False subgroup None
[INPUT] Mole.unit = angstrom
[INPUT] Symbol           X                Y                Z      unit          X                Y                Z       unit  Magmom
[INPUT]  1 C     -2.608264000000  -0.106640000000   0.012904000000 AA   -4.928904620563  -0.201520393924   0.024385025911 Bohr   0.0
[INPUT]  2 C     -1.189958000000  -0.048438000000   0.545927000000 AA   -2.248694719735  -0.091534554022   1.031652514005 Bohr   0.0
[INPUT]  3 O     -0.319857000000  -0.607509000000  -0.435862000000 AA   -0.604442129025  -1.148025628208  -0.823659808105 Bohr   0.0
[INPUT]  4 C      1.041902000000  -0.652908000000  -0.015574000000 AA    1.968909428637  -1.233817304538  -0.029430594664 Bohr   0.0
[INPUT]  5 C      1.741757000000   0.696187000000  -0.168484000000 AA    3.291443705544   1.315602761483  -0.318388616371 Bohr   0.0
[INPUT]  6 O      3.127391000000   0.586887000000   0.135984000000 AA    5.909912474430   1.109055696068   0.256972517323 Bohr   0.0
[INPUT]  7 H     -2.896051000000  -1.140337000000  -0.205648000000 AA   -5.472743232773  -2.154924619708  -0.388618398065 Bohr   0.0
[INPUT]  8 H     -2.690772000000   0.452288000000  -0.925137000000 AA   -5.084822143648   0.854700449427  -1.748255557702 Bohr   0.0
[INPUT]  9 H     -3.314340000000   0.311026000000   0.736058000000 AA   -6.263194883691   0.587753957619   1.390948031795 Bohr   0.0
[INPUT] 10 H     -1.120211000000  -0.624524000000   1.475034000000 AA   -2.116891991725  -1.180179318218   2.787410284422 Bohr   0.0
[INPUT] 11 H     -0.916436000000   0.992041000000   0.745944000000 AA   -1.731813050692   1.874685794340   1.409629864263 Bohr   0.0
[INPUT] 12 H      1.125487000000  -1.029221000000   1.011265000000 AA    2.126862186758  -1.944945811651   1.911013889358 Bohr   0.0
[INPUT] 13 H      1.551020000000  -1.389034000000  -0.648116000000 AA    2.931003013723  -2.624893837709  -1.224761736949 Bohr   0.0
[INPUT] 14 H      1.307419000000   1.439092000000   0.506702000000 AA    2.470663840053   2.719489748053   0.957528006769 Bohr   0.0
[INPUT] 15 H      1.627883000000   1.083523000000  -1.186610000000 AA    3.076253032835   2.047561719667  -2.242367916670 Bohr   0.0
[INPUT] 16 H      3.533030000000   0.037565000000  -0.557317000000 AA    6.676459089872   0.070987561869  -1.053176494564 Bohr   0.0

nuclear repulsion = 252.305696900237
number of shells = 106
number of NR pGTOs = 356
number of NR cGTOs = 246
basis = def2-TZVP
ecp = {}
CPU time:    835844.13
--- Running DFT (wb97xd/def2-TZVP) on CPU ---
--- High-quality functional detected: Setting grid level to 4 for better density tails ---


******** <class 'pyscf.dft.rks.RKS'> ********
method = RKS
initial guess = minao
damping factor = 0
level_shift factor = 0
DIIS = <class 'pyscf.scf.diis.CDIIS'>
diis_start_cycle = 1
diis_space = 8
diis_damp = 0
SCF conv_tol = 1e-09
SCF conv_tol_grad = None
SCF max_cycles = 50
direct_scf = True
direct_scf_tol = 1e-13
chkfile to save SCF result = /tmp/tmpp4wc4sof
max_memory 4000 MB (current use 2915 MB)
XC library pyscf.dft.libxc version 7.0.0
    S. Lehtola, C. Steigemann, M. J.T. Oliveira, and M. A.L. Marques.,  SoftwareX 7, 1–5 (2018)
XC functionals = wb97xd
    J.-D. Chai and M. Head-Gordon.,  Phys. Chem. Chem. Phys. 10, 6615-6620 (2008)
radial grids: 
    Treutler-Ahlrichs [JCP 102, 346 (1995); DOI:10.1063/1.469408] (M4) radial grids
    
becke partition: Becke, JCP 88, 2547 (1988); DOI:10.1063/1.454033
pruning grids: <function nwchem_prune at 0x7f35a5008680>
grids dens level: 4
symmetrized grids: False
atomic radii adjust function: <function treutler_atomic_radii_adjust at 0x7f35a50084a0>
small_rho_cutoff = 1e-07
Set gradient conv threshold to 3.16228e-05
Initial guess from minao.
tot grids = 328032
init E= -309.440876878751
  HOMO = -0.324432571665361  LUMO = 0.0263676375229766
cycle= 1 E= -308.765096783053  delta_E= 0.676  |g|= 0.831  |ddm|= 2.69
  HOMO = -0.236142109834153  LUMO = 0.108007350013334
cycle= 2 E= -308.733714383473  delta_E= 0.0314  |g|= 0.98  |ddm|= 1.11
  HOMO = -0.338628673014417  LUMO = 0.100444167604875
cycle= 3 E= -308.890143481093  delta_E= -0.156  |g|= 0.0525  |ddm|= 0.571
  HOMO = -0.33758632863884  LUMO = 0.103248552694971
cycle= 4 E= -308.890611756044  delta_E= -0.000468  |g|= 0.0236  |ddm|= 0.046
  HOMO = -0.339062747712665  LUMO = 0.103851081477978
cycle= 5 E= -308.890709065008  delta_E= -9.73e-05  |g|= 0.00969  |ddm|= 0.0203
  HOMO = -0.338543763097573  LUMO = 0.103543157746828
cycle= 6 E= -308.8907247025  delta_E= -1.56e-05  |g|= 0.00236  |ddm|= 0.00718
  HOMO = -0.338755340305439  LUMO = 0.10355478792469
cycle= 7 E= -308.890725798299  delta_E= -1.1e-06  |g|= 0.000514  |ddm|= 0.00203
  HOMO = -0.338719705466611  LUMO = 0.103575614521518
cycle= 8 E= -308.890725871261  delta_E= -7.3e-08  |g|= 7.16e-05  |ddm|= 0.000791
  HOMO = -0.338711120564004  LUMO = 0.103575577534102
cycle= 9 E= -308.890725873569  delta_E= -2.31e-09  |g|= 3e-05  |ddm|= 0.000225
  HOMO = -0.338716343828713  LUMO = 0.103575832880445
cycle= 10 E= -308.89072587386  delta_E= -2.91e-10  |g|= 7.65e-06  |ddm|= 6.81e-05
  HOMO = -0.338714652667335  LUMO = 0.103576252722245
Extra cycle  E= -308.890725873879  delta_E= -1.98e-11  |g|= 5.42e-06  |ddm|= 2.18e-05
converged SCF energy = -308.890725873879
--- Performing MBIS Partitioning (HORTON 3) ---

================================================================================
Information of integral grids.
--------------------------------------------------------------------------------
Grid size of molecular grid: 59684
************************************ Atom 0 ************************************
   |-- Radial grid size: 59
   |-- Angular grid sizes: 
          86 86 86 86 86 86 86 86 86 86 86 86 86 86 86 86 86 86 86 86
          86 86 86 86 86 86 86 86 86 86 86 86 86 86 86 86 86 86 86 86
          86 86 86 86 86 86 86 86 86 86 86 86 86 86 86 86 86 86 86
************************************ Atom 1 ************************************
   |-- Radial grid size: 59
   |-- Angular grid sizes: 
          86 86 86 86 86 86 86 86 86 86 86 86 86 86 86 86 86 86 86 86
          86 86 86 86 86 86 86 86 86 86 86 86 86 86 86 86 86 86 86 86
          86 86 86 86 86 86 86 86 86 86 86 86 86 86 86 86 86 86 86
************************************ Atom 2 ************************************
   |-- Radial grid size: 59
   |-- Angular grid sizes: 
          86 86 86 86 86 86 86 86 86 86 86 86 86 86 86 86 86 86 86 86
          86 86 86 86 86 86 86 86 86 86 86 86 86 86 86 86 86 86 86 86
          86 86 86 86 86 86 86 86 86 86 86 86 86 86 86 86 86 86 86
************************************ Atom 3 ************************************
   |-- Radial grid size: 59
   |-- Angular grid sizes: 
          86 86 86 86 86 86 86 86 86 86 86 86 86 86 86 86 86 86 86 86
          86 86 86 86 86 86 86 86 86 86 86 86 86 86 86 86 86 86 86 86
          86 86 86 86 86 86 86 86 86 86 86 86 86 86 86 86 86 86 86
************************************ Atom 4 ************************************
   |-- Radial grid size: 59
   |-- Angular grid sizes: 
          86 86 86 86 86 86 86 86 86 86 86 86 86 86 86 86 86 86 86 86
          86 86 86 86 86 86 86 86 86 86 86 86 86 86 86 86 86 86 86 86
          86 86 86 86 86 86 86 86 86 86 86 86 86 86 86 86 86 86 86
************************************ Atom 5 ************************************
   |-- Radial grid size: 59
   |-- Angular grid sizes: 
          86 86 86 86 86 86 86 86 86 86 86 86 86 86 86 86 86 86 86 86
          86 86 86 86 86 86 86 86 86 86 86 86 86 86 86 86 86 86 86 86
          86 86 86 86 86 86 86 86 86 86 86 86 86 86 86 86 86 86 86
************************************ Atom 6 ************************************
   |-- Radial grid size: 34
   |-- Angular grid sizes: 
          86 86 86 86 86 86 86 86 86 86 86 86 86 86 86 86 86 86 86 86
          86 86 86 86 86 86 86 86 86 86 86 86 86 86
************************************ Atom 7 ************************************
   |-- Radial grid size: 34
   |-- Angular grid sizes: 
          86 86 86 86 86 86 86 86 86 86 86 86 86 86 86 86 86 86 86 86
          86 86 86 86 86 86 86 86 86 86 86 86 86 86
************************************ Atom 8 ************************************
   |-- Radial grid size: 34
   |-- Angular grid sizes: 
          86 86 86 86 86 86 86 86 86 86 86 86 86 86 86 86 86 86 86 86
          86 86 86 86 86 86 86 86 86 86 86 86 86 86
************************************ Atom 9 ************************************
   |-- Radial grid size: 34
   |-- Angular grid sizes: 
          86 86 86 86 86 86 86 86 86 86 86 86 86 86 86 86 86 86 86 86
          86 86 86 86 86 86 86 86 86 86 86 86 86 86
*********************************** Atom 10 ************************************
   |-- Radial grid size: 34
   |-- Angular grid sizes: 
          86 86 86 86 86 86 86 86 86 86 86 86 86 86 86 86 86 86 86 86
          86 86 86 86 86 86 86 86 86 86 86 86 86 86
*********************************** Atom 11 ************************************
   |-- Radial grid size: 34
   |-- Angular grid sizes: 
          86 86 86 86 86 86 86 86 86 86 86 86 86 86 86 86 86 86 86 86
          86 86 86 86 86 86 86 86 86 86 86 86 86 86
*********************************** Atom 12 ************************************
   |-- Radial grid size: 34
   |-- Angular grid sizes: 
          86 86 86 86 86 86 86 86 86 86 86 86 86 86 86 86 86 86 86 86
          86 86 86 86 86 86 86 86 86 86 86 86 86 86
*********************************** Atom 13 ************************************
   |-- Radial grid size: 34
   |-- Angular grid sizes: 
          86 86 86 86 86 86 86 86 86 86 86 86 86 86 86 86 86 86 86 86
          86 86 86 86 86 86 86 86 86 86 86 86 86 86
*********************************** Atom 14 ************************************
   |-- Radial grid size: 34
   |-- Angular grid sizes: 
          86 86 86 86 86 86 86 86 86 86 86 86 86 86 86 86 86 86 86 86
          86 86 86 86 86 86 86 86 86 86 86 86 86 86
*********************************** Atom 15 ************************************
   |-- Radial grid size: 34
   |-- Angular grid sizes: 
          86 86 86 86 86 86 86 86 86 86 86 86 86 86 86 86 86 86 86 86
          86 86 86 86 86 86 86 86 86 86 86 86 86 86
--------------------------------------------------------------------------------
================================================================================
 
Performing a density-based AIM analysis with a wavefunction as input.
  Molecular grid    : MolGrid
  Using local grids : True
Iteration       Change      Entropy
        1   1.41873e+00   1.92117e+00
        2   2.34249e-01   6.49417e-01
        3   5.57948e-02   5.52692e-01
        4   2.56751e-02   5.30913e-01
        5   1.74388e-02   5.19758e-01
        6   1.33086e-02   5.12628e-01
        7   1.06098e-02   5.07826e-01
        8   8.65010e-03   5.04517e-01
        9   7.14630e-03   5.02203e-01
       10   5.95433e-03   5.00567e-01
       11   4.99043e-03   4.99401e-01
       12   4.20066e-03   4.98563e-01
       13   3.54770e-03   4.97957e-01
       14   3.00431e-03   4.97518e-01
       15   2.54990e-03   4.97198e-01
       16   2.16849e-03   4.96963e-01
       17   1.84742e-03   4.96790e-01
       18   1.57653e-03   4.96663e-01
       19   1.34753e-03   4.96569e-01
       20   1.15364e-03   4.96498e-01
       21   9.89227e-04   4.96446e-01
       22   8.49643e-04   4.96406e-01
       23   7.30986e-04   4.96376e-01
       24   6.29993e-04   4.96354e-01
       25   5.43927e-04   4.96336e-01
       26   4.70495e-04   4.96323e-01
       27   4.07748e-04   4.96312e-01
       28   3.54058e-04   4.96304e-01
       29   3.08050e-04   4.96298e-01
       30   2.68554e-04   4.96293e-01
       31   2.34594e-04   4.96289e-01
       32   2.05335e-04   4.96286e-01
       33   1.80083e-04   4.96283e-01
       34   1.58241e-04   4.96281e-01
       35   1.39309e-04   4.96279e-01
       36   1.22864e-04   4.96278e-01
       37   1.08552e-04   4.96276e-01
       38   9.60632e-05   4.96275e-01
       39   8.51439e-05   4.96274e-01
       40   7.55764e-05   4.96274e-01
       41   6.71771e-05   4.96273e-01
       42   5.97864e-05   4.96272e-01
       43   5.32687e-05   4.96272e-01
       44   4.75142e-05   4.96272e-01
       45   4.24233e-05   4.96271e-01
       46   3.79100e-05   4.96271e-01
       47   3.39046e-05   4.96271e-01
       48   3.03408e-05   4.96270e-01
       49   2.71750e-05   4.96270e-01
       50   2.43510e-05   4.96270e-01
       51   2.18314e-05   4.96270e-01
       52   1.95800e-05   4.96270e-01
       53   1.75710e-05   4.96269e-01
       54   1.57715e-05   4.96269e-01
       55   1.41625e-05   4.96269e-01
       56   1.27180e-05   4.96269e-01
       57   1.14279e-05   4.96269e-01
       58   1.02688e-05   4.96269e-01
       59   9.22800e-06   4.96269e-01
       60   8.29590e-06   4.96269e-01
       61   7.45659e-06   4.96269e-01
       62   6.70592e-06   4.96269e-01
       63   6.02975e-06   4.96269e-01
       64   5.42180e-06   4.96269e-01
       65   4.87554e-06   4.96268e-01
       66   4.38700e-06   4.96268e-01
       67   3.94600e-06   4.96268e-01
       68   3.54942e-06   4.96268e-01
       69   3.19127e-06   4.96268e-01
       70   2.87089e-06   4.96268e-01
       71   2.58427e-06   4.96268e-01
       72   2.32500e-06   4.96268e-01
       73   2.09170e-06   4.96268e-01
       74   1.87958e-06   4.96268e-01
       75   1.69185e-06   4.96268e-01
       76   1.52343e-06   4.96268e-01
       77   1.37069e-06   4.96268e-01
       78   1.23322e-06   4.96268e-01
       79   1.10644e-06   4.96268e-01
       80   9.97872e-07   4.96268e-01

Computing cartesian and pure AIM multipoles and radial AIM moments.
--- Deriving Physical Parameters (alpha, C6, C8, C10, Slater B) ---

Success! Physics anchors for PEO saved to production_results/PEO/results_high.json
>>> Completed: PEO
